LAMMPS (19 Sep 2019)

include		in.temp
variable	temperature equal 1700.
variable	tempDamp equal 0.1 # approx 0.1 ps
include		in.pressure
variable	pressure equal 1.
variable	pressureDamp equal 1.0
include		in.seed
variable	seed equal 74581
units		metal
atom_style	full
include		in.box
lattice 	diamond 5.4307
Lattice spacing in x,y,z = 5.4307 5.4307 5.4307
region          myreg block 0 3 0 3 0 3
create_box      1 myreg
Created orthogonal box = (0 0 0) to (16.2921 16.2921 16.2921)
  1 by 2 by 2 MPI processor grid
create_atoms    1 region myreg
Created 216 atoms
  create_atoms CPU = 0.000663675 secs
variable 	mass equal 28.0855
mass            1 ${mass}
mass            1 28.0855
include 	in.setup
variable	out_freq equal 500
variable	out_freq2 equal 500

neigh_modify    delay 10 every 1
pair_style 	sw
pair_coeff 	* * Si.sw Si
Reading potential file Si.sw with DATE: 2007-06-11

timestep	0.002 # According to Frenkel and Smit is 0.001

thermo          ${out_freq}
thermo          500
thermo_style 	custom step temp pe press lx


restart 	${out_freq} Restart.lmp Restart2.lmp
restart 	500 Restart.lmp Restart2.lmp



minimize 1.0e-2 1.0e-3 100 1000
WARNING: Using 'neigh_modify every 1 delay 0 check yes' setting during minimization (../min.cpp:177)
Neighbor list info ...
  update every 1 steps, delay 0 steps, check yes
  max neighbors/atom: 2000, page size: 100000
  master list distance cutoff = 5.77118
  ghost atom cutoff = 5.77118
  binsize = 2.88559, bins = 6 6 6
  1 neighbor lists, perpetual/occasional/extra = 1 0 0
  (1) pair sw, perpetual
      attributes: full, newton on
      pair build: full/bin
      stencil: full/bin/3d
      bin: standard
Setting up cg style minimization ...
  Unit style    : metal
  Current step  : 0
Per MPI rank memory allocation (min/avg/max) = 7.153 | 7.153 | 7.153 Mbytes
Step Temp PotEng Press Lx 
       0            0   -936.70557    139.96968      16.2921 
       1            0   -936.70557    139.96968      16.2921 
Loop time of 0.000306999 on 4 procs for 1 steps with 216 atoms

70.2% CPU use with 4 MPI tasks x no OpenMP threads

Minimization stats:
  Stopping criterion = energy tolerance
  Energy initial, next-to-last, final = 
        -936.705573919     -936.705573919     -936.705573919
  Force two-norm initial, final = 2.42455e-13 1.91021e-13
  Force max component initial, final = 2.15509e-14 2.28425e-14
  Final line search alpha, max atom move = 1 2.28425e-14
  Iterations, force evaluations = 1 2

MPI task timing breakdown:
Section |  min time  |  avg time  |  max time  |%varavg| %total
---------------------------------------------------------------
Pair    | 9.0276e-05 | 9.4301e-05 | 9.6976e-05 |   0.0 | 30.72
Bond    | 1.4604e-07 | 1.5352e-07 | 1.6403e-07 |   0.0 |  0.05
Neigh   | 7.3157e-05 | 7.3773e-05 | 7.4713e-05 |   0.0 | 24.03
Comm    | 5.9036e-05 | 6.0946e-05 | 6.3742e-05 |   0.0 | 19.85
Output  | 0          | 0          | 0          |   0.0 |  0.00
Modify  | 0          | 0          | 0          |   0.0 |  0.00
Other   |            | 7.783e-05  |            |       | 25.35

Nlocal:    54 ave 54 max 54 min
Histogram: 4 0 0 0 0 0 0 0 0 0
Nghost:    543 ave 543 max 543 min
Histogram: 4 0 0 0 0 0 0 0 0 0
Neighs:    0 ave 0 max 0 min
Histogram: 4 0 0 0 0 0 0 0 0 0
FullNghs:  1836 ave 1836 max 1836 min
Histogram: 4 0 0 0 0 0 0 0 0 0

Total # of neighbors = 7344
Ave neighs/atom = 34
Ave special neighs/atom = 0
Neighbor list builds = 1
Dangerous builds = 0

reset_timestep 	0

# NVT

fix             1 all nve
fix             2 all temp/csvr ${temperature} ${temperature} ${tempDamp} ${seed}
fix             2 all temp/csvr 1700 ${temperature} ${tempDamp} ${seed}
fix             2 all temp/csvr 1700 1700 ${tempDamp} ${seed}
fix             2 all temp/csvr 1700 1700 0.1 ${seed}
fix             2 all temp/csvr 1700 1700 0.1 74581

velocity        all create ${temperature} ${seed} dist gaussian
velocity        all create 1700 ${seed} dist gaussian
velocity        all create 1700 74581 dist gaussian
run             25000
Setting up Verlet run ...
  Unit style    : metal
  Current step  : 0
  Time step     : 0.002
Per MPI rank memory allocation (min/avg/max) = 6.028 | 6.028 | 6.028 Mbytes
Step Temp PotEng Press Lx 
       0         1700   -936.70557    11809.138      16.2921 
     500    1679.1995   -888.62173    16876.708      16.2921 
    1000    1715.9323   -886.06377    16272.813      16.2921 
    1500    1648.8391    -883.1246    15830.859      16.2921 
    2000    1522.9924   -884.85549    15764.357      16.2921 
    2500    1923.7533   -885.46394    16915.123      16.2921 
    3000    1626.2567    -886.0714    15169.709      16.2921 
    3500    1620.4943   -887.96588    16798.853      16.2921 
    4000    1647.0493   -882.52257     12646.04      16.2921 
    4500    1526.9423   -880.41996    15012.875      16.2921 
    5000    1719.6508   -886.67565     12623.47      16.2921 
    5500    1772.8731   -879.94047    17115.487      16.2921 
    6000    1614.5514   -885.76768    14717.824      16.2921 
    6500    1838.4583   -881.00976    16645.145      16.2921 
    7000    1676.3504   -886.46247    16629.362      16.2921 
    7500    1824.5055    -887.4784    17250.756      16.2921 
    8000    1803.4227    -888.5466    18535.249      16.2921 
    8500    1699.2563   -887.84819    15948.397      16.2921 
    9000     1637.796   -884.14018    14631.503      16.2921 
    9500    1649.9898   -884.86576    15816.676      16.2921 
   10000    1734.0916   -884.09122    16561.717      16.2921 
   10500    1584.2519   -886.33877    16146.966      16.2921 
   11000    1726.7406   -887.23566    16085.837      16.2921 
   11500    1579.7698   -883.25095    14159.332      16.2921 
   12000    1811.0945   -888.96586    14531.657      16.2921 
   12500    1774.2197   -886.64463    16748.385      16.2921 
   13000    1758.2364   -882.53685    17074.419      16.2921 
   13500    1899.5023   -880.28338    17594.869      16.2921 
   14000    1723.6181   -886.24013    16335.269      16.2921 
   14500    1835.6436    -885.7428     16985.95      16.2921 
   15000    1676.7806   -885.29393    15835.259      16.2921 
   15500    1613.8346   -889.54096    14352.975      16.2921 
   16000     1665.929   -886.33126    14366.791      16.2921 
   16500    1632.6883   -889.05848    13746.069      16.2921 
   17000    1929.7599    -882.0689    16821.867      16.2921 
   17500    1730.0785   -884.98693    14114.275      16.2921 
   18000    1632.3653   -883.67932     15887.89      16.2921 
   18500     1583.815   -883.81212    14864.788      16.2921 
   19000    1601.6748   -885.39967    14787.762      16.2921 
   19500    1761.2727   -885.88095    16499.339      16.2921 
   20000    1762.9616   -885.77147    17039.926      16.2921 
   20500    1710.2508   -884.02614    16673.826      16.2921 
   21000    1788.0472   -885.09161    17466.132      16.2921 
   21500    1675.5817   -879.70874    15527.301      16.2921 
   22000    1732.7538   -884.68307    15181.909      16.2921 
   22500    1722.7512   -883.69591    15868.791      16.2921 
   23000    1688.3776   -886.36278    15884.647      16.2921 
   23500     1690.765    -884.4817    17452.589      16.2921 
   24000    1581.4589   -885.47889    15929.723      16.2921 
   24500     1784.423    -883.8011    17207.219      16.2921 
   25000    1693.3214    -884.0035    15036.222      16.2921 
Loop time of 3.3165 on 4 procs for 25000 steps with 216 atoms

Performance: 1302.577 ns/day, 0.018 hours/ns, 7538.059 timesteps/s
97.5% CPU use with 4 MPI tasks x no OpenMP threads

MPI task timing breakdown:
Section |  min time  |  avg time  |  max time  |%varavg| %total
---------------------------------------------------------------
Pair    | 2.4051     | 2.4711     | 2.6307     |   5.9 | 74.51
Bond    | 0.0007345  | 0.00081519 | 0.00091055 |   0.0 |  0.02
Neigh   | 0.044183   | 0.045148   | 0.047309   |   0.6 |  1.36
Comm    | 0.53228    | 0.69282    | 0.75845    |  11.2 | 20.89
Output  | 0.0037844  | 0.0038437  | 0.0039963  |   0.1 |  0.12
Modify  | 0.059672   | 0.067021   | 0.075109   |   2.2 |  2.02
Other   |            | 0.03574    |            |       |  1.08

Nlocal:    54 ave 59 max 44 min
Histogram: 1 0 0 0 0 0 1 0 0 2
Nghost:    536.25 ave 547 max 529 min
Histogram: 2 0 0 0 0 1 0 0 0 1
Neighs:    0 ave 0 max 0 min
Histogram: 4 0 0 0 0 0 0 0 0 0
FullNghs:  1957.5 ave 2173 max 1555 min
Histogram: 1 0 0 0 0 0 1 0 0 2

Total # of neighbors = 7830
Ave neighs/atom = 36.25
Ave special neighs/atom = 0
Neighbor list builds = 560
Dangerous builds = 0

unfix           1
unfix           2

# NPT

fix             1 all nph iso ${pressure} ${pressure} ${pressureDamp}
fix             1 all nph iso 1 ${pressure} ${pressureDamp}
fix             1 all nph iso 1 1 ${pressureDamp}
fix             1 all nph iso 1 1 1
fix             2 all temp/csvr ${temperature} ${temperature} ${tempDamp} ${seed}
fix             2 all temp/csvr 1700 ${temperature} ${tempDamp} ${seed}
fix             2 all temp/csvr 1700 1700 ${tempDamp} ${seed}
fix             2 all temp/csvr 1700 1700 0.1 ${seed}
fix             2 all temp/csvr 1700 1700 0.1 74581

velocity        all create ${temperature} ${seed} dist gaussian
velocity        all create 1700 ${seed} dist gaussian
velocity        all create 1700 74581 dist gaussian
run             25000
Setting up Verlet run ...
  Unit style    : metal
  Current step  : 25000
  Time step     : 0.002
Per MPI rank memory allocation (min/avg/max) = 6.028 | 6.028 | 6.028 Mbytes
Step Temp PotEng Press Lx 
   25000         1700    -884.0035    15082.066      16.2921 
   25500    1555.6504    -884.8968   -12162.482    16.441754 
   26000    1680.4516   -885.16193    3994.9563     16.34043 
   26500    1743.0127    -885.1093   -5225.8606    16.398243 
   27000    1615.1212   -887.06612    8609.9765    16.316207 
   27500    1843.1956   -883.14349   -10370.205    16.443426 
   28000    1623.3822   -885.31819    14926.309    16.295525 
   28500    1538.9804   -884.52361   -10787.995    16.435933 
   29000    1577.9516   -881.48053    4161.1727    16.345295 
   29500     1725.728    -886.1624   -6042.9315    16.410905 
   30000    1658.7506   -885.02035    5157.0269    16.356936 
   30500    1910.8779   -883.62509    -5855.775    16.428757 
   31000    1732.5086   -888.43158    8419.3962    16.333037 
   31500    1879.4613   -883.10774   -6244.1602    16.431442 
   32000    1823.8594   -890.96156    5530.3808    16.358514 
   32500    1782.1369   -886.39995   -270.76055    16.391413 
   33000    1652.3217   -883.46315   -1319.8455     16.37625 
   33500    1675.8646   -887.33873    826.24517    16.378346 
   34000    1662.2998   -885.03262    1031.6334    16.378529 
   34500    1657.1525   -885.38763    1570.4049    16.357334 
   35000    1765.1622   -884.56844   -2833.4478    16.394443 
   35500    1583.9714   -886.29281    2664.7136    16.364185 
   36000     1688.971   -886.25076   -4518.3273    16.411025 
   36500    1758.0727   -888.20044    7235.7825    16.342242 
   37000     1670.826    -884.7256   -8585.1183    16.436826 
   37500    1682.9239   -883.68068    11430.141     16.31992 
   38000    1673.1103   -879.56957   -10850.895    16.442511 
   38500    1952.8855   -881.43746    8304.8267    16.369705 
   39000    1698.5492   -885.14733   -1251.2765     16.38451 
   39500    1779.0123   -883.35075     1638.394    16.382203 
   40000    1711.3446   -886.06043    981.96158    16.371626 
   40500    1642.7416   -889.93093     -992.633    16.384578 
   41000    1723.8948   -887.96671    560.02357    16.370612 
   41500    1576.8103   -887.11383   -2305.3637    16.385332 
   42000     1906.334   -881.05593    3838.5723    16.358099 
   42500    1657.1028   -881.59018   -8019.1831    16.415549 
   43000    1856.9458   -889.22239     10861.54    16.330166 
   43500    1695.3945   -886.48788   -10618.377    16.447543 
   44000    1650.9633   -887.07141    9706.0898    16.331643 
   44500    1760.3533   -886.22557   -3563.2701    16.395503 
   45000     1746.132   -884.49213    4324.3027    16.359289 
   45500    1720.0738   -883.70129   -6207.0149    16.419086 
   46000    1800.4021   -885.21665    15151.023    16.309144 
   46500    1786.2923    -881.8992   -15847.823    16.481416 
   47000    1688.1048   -883.96588    7850.7115    16.335586 
   47500    1703.3419   -882.46709   -10981.141    16.443233 
   48000    1591.5151   -883.30086    8926.8264    16.318286 
   48500    1783.1312   -886.98316   -11522.733     16.44242 
   49000    1685.2702   -888.19768    5148.3025    16.348538 
   49500    1898.6547   -885.89458   -1301.1085    16.398105 
   50000     1808.024   -887.02987    1320.9766    16.369365 
Loop time of 3.2444 on 4 procs for 25000 steps with 216 atoms

Performance: 1331.524 ns/day, 0.018 hours/ns, 7705.580 timesteps/s
97.0% CPU use with 4 MPI tasks x no OpenMP threads

MPI task timing breakdown:
Section |  min time  |  avg time  |  max time  |%varavg| %total
---------------------------------------------------------------
Pair    | 2.2051     | 2.2768     | 2.4086     |   5.2 | 70.18
Bond    | 0.00078843 | 0.00088118 | 0.0010127  |   0.0 |  0.03
Neigh   | 0.053901   | 0.054846   | 0.057338   |   0.6 |  1.69
Comm    | 0.53195    | 0.66567    | 0.74012    |   9.8 | 20.52
Output  | 0.0037006  | 0.0037591  | 0.0039139  |   0.1 |  0.12
Modify  | 0.202      | 0.20602    | 0.20892    |   0.6 |  6.35
Other   |            | 0.03647    |            |       |  1.12

Nlocal:    54 ave 57 max 50 min
Histogram: 1 0 0 0 1 0 0 0 1 1
Nghost:    539.5 ave 542 max 535 min
Histogram: 1 0 0 0 0 0 0 1 1 1
Neighs:    0 ave 0 max 0 min
Histogram: 4 0 0 0 0 0 0 0 0 0
FullNghs:  1926 ave 2051 max 1754 min
Histogram: 1 0 0 0 1 0 0 0 1 1

Total # of neighbors = 7704
Ave neighs/atom = 35.6667
Ave special neighs/atom = 0
Neighbor list builds = 684
Dangerous builds = 0

unfix           1
unfix           2

# Production run

include		in.dump
dump            myDump all atom ${out_freq2} dump.na
dump            myDump all atom 500 dump.na
dump            myDcdDump all dcd ${out_freq2} out.dcd
dump            myDcdDump all dcd 500 out.dcd
dump_modify	myDump append yes
dump_modify     myDcdDump append yes

reset_timestep  0

fix             1 all plumed plumedfile plumed.dat outfile log.plumed
fix             2 all nph iso ${pressure} ${pressure} ${pressureDamp}
fix             2 all nph iso 1 ${pressure} ${pressureDamp}
fix             2 all nph iso 1 1 ${pressureDamp}
fix             2 all nph iso 1 1 1
fix             3 all temp/csvr ${temperature} ${temperature} ${tempDamp} ${seed}
fix             3 all temp/csvr 1700 ${temperature} ${tempDamp} ${seed}
fix             3 all temp/csvr 1700 1700 ${tempDamp} ${seed}
fix             3 all temp/csvr 1700 1700 0.1 ${seed}
fix             3 all temp/csvr 1700 1700 0.1 74581
fix		4 all momentum 10000 linear 1 1 1 angular

run             2500000
Setting up Verlet run ...
  Unit style    : metal
  Current step  : 0
  Time step     : 0.002
Per MPI rank memory allocation (min/avg/max) = 7.053 | 7.053 | 7.053 Mbytes
Step Temp PotEng Press Lx 
       0     1808.024   -887.02987    1320.9766    16.369365 
     500    1664.5274   -887.97853    1774.4042    16.377183 
    1000     1607.631   -882.60705   -5634.9415    16.409778 
    1500    1648.7997    -883.4786    12243.624    16.313599 
    2000    1587.0808    -888.6511   -12567.965    16.450426 
    2500    1744.0053   -881.25973    6164.8305    16.355277 
    3000    1621.8663   -877.31365    3897.9047    16.362029 
    3500     1545.044   -875.36535   -3795.0155    16.384907 
    4000    1611.1985   -871.50957   -522.70897    16.379609 
    4500    1772.0296   -889.92783    2641.8157    16.361971 
    5000    1826.9459   -891.20397   -1.3752763    16.377493 
    5500    1833.2457   -870.32404   -709.27823    16.372536 
    6000    1722.4476   -876.74594    139.95211    16.359484 
    6500    1821.5791    -870.5919    3949.9608    16.347606 
    7000    1600.9486   -870.25501    4110.0359     16.33099 
    7500    1577.9714   -868.98058   -57.861883    16.347127 
    8000    1754.0024    -879.5161   -2018.4514    16.393936 
    8500    1697.2175   -879.96174    14043.629    16.314357 
    9000    1749.6632   -889.12078   -10966.726    16.441689 
    9500    1542.1546     -879.937    1896.0567    16.354366 
   10000    1806.7599    -890.6519    2041.1201    16.372714 
   10500    1623.4305   -891.44551    -4165.611    16.392565 
   11000    1746.1003   -891.30888    6473.0446    16.336203 
   11500    1651.3198    -889.7063   -9961.0538    16.440588 
   12000    1709.2922   -876.03361    12415.058     16.30742 
   12500    1778.7757   -876.20561   -3480.4825    16.378247 
   13000    1667.9451    -869.7541   -5322.2358    16.393391 
   13500    1845.6901   -862.59483    758.71134     16.34876 
   14000     1649.635   -867.98589   -1272.2863    16.339255 
   14500    1753.6681   -873.63038    7266.4944    16.322447 
   15000    1692.5322   -877.59343   -21375.639    16.517018 
   15500    1657.8642    -881.7602    8803.1749    16.312798 
   16000     1729.468   -877.19113   -3486.5536    16.373807 
   16500    1610.9384   -868.45868    4956.6917    16.320487 
   17000    1989.6563   -865.03041    1773.0459    16.345088 
   17500    1651.4012   -867.24263   -1297.3786    16.353283 
   18000    1643.5227   -871.00567    1126.1553    16.349886 
   18500    1704.3063   -878.60081   -872.96457     16.37544 
   19000    1642.5775   -877.24341    4820.9703    16.332606 
   19500    1586.3545   -872.71341   -3459.3614    16.393003 
   20000    1690.0177   -876.09753    8668.2509    16.335458 
   20500     1673.006    -876.9594   -13642.899    16.456545 
   21000    1685.2833    -876.4738    12369.656    16.316125 
   21500    1809.1634   -877.35337    1603.8233    16.376411 
   22000     1810.482   -889.51091   -628.61558    16.387524 
   22500    1779.2075   -888.31784    3147.2349    16.363375 
   23000    1559.7257   -889.31886   -6335.5718    16.401812 
   23500    1781.3422   -893.10003    11199.307    16.316215 
   24000    1569.6324   -891.32529   -13041.092    16.447217 
   24500    1726.9152   -888.63254    10596.086    16.319887 
   25000    1789.4054   -877.09257   -3188.8902    16.390325 
   25500    1712.2622   -874.68426    869.28907    16.391352 
   26000     1659.259   -874.05537   -3480.2277    16.390804 
   26500    1583.8571   -877.77338    1911.3687    16.358298 
   27000    1650.3675   -872.23826   -448.22686    16.360942 
   27500    1562.8524   -866.14803   -7344.0777    16.374149 
   28000    1787.9923    -864.4361    21087.993    16.243479 
   28500    1634.2823   -859.90913   -8486.3235    16.373337 
   29000    1660.4615    -859.7678    3196.8223    16.322676 
   29500    1723.6798   -866.85832   -6448.1288    16.365344 
   30000    1436.1113   -863.98888     1907.398    16.325668 
   30500    1613.3517     -864.736   -3123.4517    16.316967 
   31000    1587.7899   -864.94279    710.56498    16.389648 
   31500    1526.5299   -863.82165   -7091.4025    16.374195 
   32000    1742.9681   -869.16656    11583.351    16.296944 
   32500     1694.444   -870.88118   -6235.2394    16.420059 
   33000    1830.4891    -868.2807    2232.7776    16.384556 
   33500    1735.8005   -872.47346    -2625.291    16.352814 
   34000    1740.5712    -864.3338    8337.2441    16.306041 
   34500    1654.4881   -860.17791   -10276.935    16.419907 
   35000    1714.9342   -873.00924     7341.281    16.300535 
   35500    1573.0538   -874.59902   -7690.0907    16.380051 
   36000    1796.4361   -880.57544   -402.62598    16.393286 
   36500    1543.3863   -876.38099    10194.054    16.304927 
   37000     1791.344   -890.08085   -17685.579    16.480788 
   37500    1757.7073   -889.45961    9508.7362    16.324739 
   38000    1799.3961   -892.76275   -4421.1232     16.40587 
   38500    1769.1975   -887.54043    2273.8949    16.367065 
   39000    1740.3784   -894.44007   -4399.5679    16.402496 
   39500    1867.9604   -891.52255    6526.7869    16.346913 
   40000    1511.9809   -871.94769    2371.5442    16.355398 
   40500    1610.4826   -874.53285   -10205.856    16.410113 
   41000     1802.027   -882.15379    16286.259     16.27605 
   41500    1550.1991   -877.73331   -11261.382    16.437572 
   42000    1549.7839   -872.61765    3703.8287    16.346943 
   42500    1707.5809   -876.34124    5032.1114    16.347103 
   43000    1603.9943   -876.53866   -7793.9189    16.421659 
   43500    1804.5306   -878.10075    7334.4193    16.323039 
   44000    1696.9428   -869.66163   -13862.542    16.429856 
   44500     1566.886   -873.23049    805.95925     16.37171 
   45000    1713.8248   -870.84625    9942.0855    16.318535 
   45500    1717.4886   -862.54389   -12709.582    16.420059 
   46000    1846.6314   -862.55146    8609.8851    16.337631 
   46500    1767.8534   -860.89834   -14126.965     16.36667 
   47000    1605.9437   -859.14541    6925.5972    16.314288 
   47500    1773.4032   -860.95111    1925.1315    16.327989 
   48000    1694.8792   -852.53496    -5987.379     16.33098 
   48500    1596.3458   -855.74702    1102.0304    16.281146 
   49000    1896.1295   -853.67948    841.24001    16.290102 
   49500    1616.1721   -859.61577   -5346.8147    16.317218 
   50000       1808.5   -852.13539    -3395.927    16.274053 
   50500      1748.31   -852.70488   -3040.7529    16.289402 
   51000    1774.2651   -851.35746    6823.1421    16.289145 
   51500    1438.7953   -857.45905   -20159.812    16.390276 
   52000    1879.9234   -855.41643     3816.624    16.314619 
   52500    1667.1485   -865.34907   -3379.4165    16.333149 
   53000    1617.9755   -859.93885     756.9561    16.329782 
   53500    1700.2801   -863.57454    4153.2605    16.318537 
   54000    1776.2381   -868.87611   -9447.6005    16.412985 
   54500    1647.6859   -865.30607     16722.66    16.263933 
   55000    1962.2204   -878.76001   -5592.0943    16.390545 
   55500    1896.3903   -874.45892    7507.3898    16.347198 
   56000    1779.3121   -863.14416    5539.8228     16.33237 
   56500    1925.6946   -871.87818   -8566.6478    16.418431 
   57000     1633.778   -877.50911    25381.306    16.231575 
   57500    1587.0997   -878.50989   -10026.977    16.431281 
   58000    1832.1106   -885.51314    6699.9941    16.345563 
   58500    1611.9031   -886.83792   -3458.3936    16.392706 
   59000    1742.9749    -896.3395    5756.3686    16.341824 
   59500    1423.9862   -877.14666    -8083.677    16.412426 
   60000    1620.1667   -872.92524   -2920.1959     16.38033 
   60500    1874.6427   -870.47422    2871.1526    16.343275 
   61000     1498.141    -863.0069   -1821.2681    16.371783 
   61500    1641.6954   -874.16481    5776.0339    16.337367 
   62000    1675.1221    -860.4777   -1342.2344    16.328904 
   62500    1843.7816   -857.11813    2270.5921    16.322298 
   63000    1672.7149   -860.17173    11101.705    16.272975 
   63500    1525.4203   -855.55624   -19333.484    16.397424 
   64000    1780.7336   -855.30538    1212.8313    16.278802 
   64500    1759.3102   -852.10289   -5906.3513    16.310208 
   65000    1743.5533   -857.39647    6423.7894    16.269251 
   65500     1899.422   -855.53851   -5279.0889    16.348346 
   66000    1635.1294   -847.24156    10117.536     16.20935 
   66500    1538.0656   -849.98804    1645.4676    16.314379 
   67000    1633.9134   -862.13553   -6736.6289    16.332593 
   67500    1690.8155    -862.5128     6784.386    16.311893 
   68000    1779.2474   -863.21468   -1193.1273    16.341621 
   68500    1655.0916    -864.0807   -9589.9637    16.364277 
   69000    1772.6362   -864.22277    4876.1604    16.307665 
   69500    1703.9674   -866.87674   -16814.995    16.398427 
   70000    1575.6589    -857.6346    10943.529    16.251268 
   70500    1703.0727   -862.58387   -8054.9905     16.38081 
   71000    1562.8545   -860.60666    2973.6306    16.305155 
   71500    1738.4478   -868.20219   -1548.6717    16.352118 
   72000    1621.9099   -872.05783   -599.91028    16.376962 
   72500    1807.7098   -878.61923    4782.1379    16.339583 
   73000    1778.9841   -870.39131   -11242.803    16.443688 
   73500    1863.4351   -877.58171    15464.812    16.285309 
   74000    1890.6005   -880.82912   -8685.0428    16.433186 
   74500    1628.2834   -874.57561   -1467.2112    16.375167 
   75000    1593.8461   -889.63855    5990.5633    16.335538 
   75500     1575.485   -893.99013   -9161.8741    16.410072 
   76000    1655.9104   -896.70376    7496.5799    16.327626 
   76500    1723.7777   -894.81768   -5118.2261    16.404048 
   77000    1722.7069    -896.1886    6058.7124     16.34076 
   77500    1539.3858   -899.95397   -5329.7408    16.396554 
   78000    1720.0366   -891.45071    11271.572    16.311246 
   78500    1772.2366    -896.7835   -21141.807    16.493481 
   79000    1603.1737   -890.17183    9469.7151    16.325998 
   79500    1628.1944   -891.60145   -7846.4671     16.41891 
   80000    1743.1624   -890.62609    6862.1125    16.340219 
   80500    1850.7936   -878.46336    1683.2811    16.387621 
   81000    1620.7141   -869.43517   -15079.129    16.455565 
   81500    1945.2445   -877.65177    14928.201    16.288546 
   82000    1655.1181   -866.55003   -12078.798    16.434258 
   82500    1541.3996   -865.41591     5778.674    16.326407 
   83000    1741.1685    -868.4178   -3496.5078    16.374578 
   83500    1622.6039   -869.97693    3476.5609    16.350144 
   84000    1617.8472   -879.80351    2922.6502    16.330759 
   84500    1604.1228   -866.31291   -14914.142    16.409413 
   85000    1805.5254   -869.18485    6437.0345    16.318362 
   85500    1763.0496   -864.17956   -2760.9144    16.381457 
   86000      1658.51   -875.43335    1463.3678    16.363398 
   86500    1690.8289   -879.07024    1635.2841    16.373052 
   87000    1716.4184   -872.63104    -6304.225    16.392042 
   87500    1695.3233   -877.99569    3009.1476    16.363023 
   88000    1809.9197    -872.6222   -3890.6427    16.409839 
   88500    1659.9374   -871.76851   -22.481208    16.387562 
   89000    1697.8092   -880.97961    8472.4207    16.337733 
   89500    1616.5339   -874.25454   -18308.622    16.473621 
   90000    1737.5649   -878.26154    6508.9271    16.330882 
   90500    1765.7032   -877.49405   -2803.2307     16.40018 
   91000    1702.1025   -877.24791    4782.9912    16.335142 
   91500    1778.0458    -883.4742   -6165.6901    16.421419 
   92000    1730.0674   -878.28158    719.53226    16.374824 
   92500    1729.9431   -872.74163    -590.9473    16.370451 
   93000    1721.7966   -874.30786   -918.95646    16.355794 
   93500    1610.5488   -872.26164    1998.9124    16.356822 
   94000    1809.9209   -878.53058    888.30274    16.360202 
   94500    1782.8083   -873.20006   -3615.4252    16.407664 
   95000    1671.1144   -867.22305    255.93735    16.314983 
   95500    1691.3041   -867.90007   -10513.338    16.385705 
   96000    1759.2862   -857.95636    18486.486    16.235552 
   96500    1675.4791   -861.15783   -20492.514     16.42353 
   97000    1778.3457   -863.84556    2659.9804    16.318854 
   97500    1591.8812   -842.02573   -8829.2859    16.311768 
   98000    1878.0641    -856.9615   -5583.9787    16.313107 
   98500    1621.5266   -842.86809   -7175.9054    16.301233 
   99000    1705.0112   -842.06295    7049.7811    16.239033 
   99500    1776.9357   -841.54003    7726.3489    16.184357 
  100000    1853.9494   -828.49085   -4118.0429    16.205285 
  100500    1670.5511   -825.42724     16176.64    16.116546 
  101000    1731.3329   -826.67285   -178.50871    16.173942 
  101500    1534.6352   -818.79231    1102.5485    16.118935 
  102000    1636.3959   -820.22805    7412.0834    15.935758 
  102500    1696.2363   -812.50899   -1223.8192    15.966758 
  103000    1840.2686   -808.80164    13050.812    15.987275 
  103500    1689.8839   -815.22414   -3166.7817    15.960937 
  104000    1715.6828   -810.04667    20323.291    15.939461 
  104500    1800.5121   -816.13581    5957.7962    15.962329 
  105000    1605.3175   -815.71142   -7426.2455    16.033609 
  105500    1721.9095   -816.32104   -19913.787    15.989685 
  106000    1779.2452   -820.53478   -13174.189    15.988159 
  106500     1659.651   -813.43429    16135.224    15.968682 
  107000    1741.8084   -814.44609   -12838.834    16.036704 
  107500    1718.5122   -817.20446   -10207.138    15.970714 
  108000    1873.6723   -810.22005    2678.3006    15.980264 
  108500    1684.6076   -816.42246   -7331.2737    15.938949 
  109000    1719.4823   -813.57185    7331.3349    15.955758 
  109500    1617.3349   -814.99029    2522.1748    15.967571 
  110000     1665.558   -816.55037    18374.448    15.882365 
  110500    1701.8152   -811.14233    17459.573     15.95352 
  111000    1663.7093   -817.13211    9756.5329    15.913267 
  111500    1697.5298   -817.13033   -2911.4537    15.978938 
  112000    1656.4716   -812.15438    14380.096     15.93464 
  112500    1677.7225   -812.14238   -11136.232    16.012504 
  113000    1742.4333    -817.8658   -3041.7559    15.905921 
  113500    1662.4428    -816.8129    8709.8082    15.975721 
  114000    1671.8983   -819.69683   -12491.652    16.095974 
  114500    1655.5836   -813.51256   -1680.7326    16.018284 
  115000    1722.7395   -810.69172    34247.673    15.928784 
  115500    1839.2319    -818.4565    12487.722    15.975978 
  116000    1838.9567   -819.10621    9132.8237    15.971415 
  116500     1705.681   -815.56768    12836.778      15.9702 
  117000    1709.7353   -816.19467   -26021.756    16.011317 
  117500     1779.738   -825.83185    15733.879    15.984801 
  118000    1871.4541   -813.78605    19009.269    15.989455 
  118500    1539.3518   -815.02873    10250.919    15.982261 
  119000    1739.6999   -815.48063    2805.0556    15.988519 
  119500    1911.6844   -812.16107   -4364.9831    16.001809 
  120000    1643.1424   -813.50498   -5972.7079     15.97928 
  120500     1707.553   -810.88091    13274.282    15.914645 
  121000    1769.0176   -809.13235    -4676.919    15.930241 
  121500    1614.3108   -807.27108    16591.219    15.942753 
  122000    1666.7763   -809.40757    26877.845    15.956158 
  122500    1786.9147   -811.85949   -1320.7787    15.944487 
  123000    1638.6189   -813.49254    5805.4526     15.98759 
  123500    1755.8852   -811.04024   -14888.815     16.06403 
  124000    1674.0234   -816.55645    20622.813    15.957502 
  124500    1629.9525   -817.48131    13291.093    15.969822 
  125000    1704.5535   -821.17775   -4019.1514    16.065783 
  125500    1653.0442   -817.03134   -407.47578    16.023222 
  126000    1831.5063   -819.09173    8119.3858    15.996013 
  126500    1644.6151   -812.45993   -23695.207    16.047985 
  127000    1585.8136   -809.78893   -26034.457    15.990815 
  127500    1797.2966   -814.37483   -15329.141    16.059929 
  128000    1682.6982   -815.89533    6276.1699     15.99637 
  128500    1697.2412   -813.22427   -6788.1424    16.051492 
  129000    1677.5463   -820.44777   -2872.7725    16.028045 
  129500    1561.5345   -817.23374    577.82233    16.043223 
  130000    1521.9253   -820.77644    15100.633    15.971757 
  130500    1728.6487   -815.27254      13610.4    15.971734 
  131000    1711.1892   -820.88347    8443.5744    15.988483 
  131500    1615.8265   -821.58548    -21865.12    16.030389 
  132000    1707.7265   -822.89813   -11597.042    16.058247 
  132500    1874.3716    -813.8244   -1921.9292    15.991197 
  133000    1895.4384   -820.15691    19426.469    15.965867 
  133500    1763.4144   -816.96931   -15181.768    16.039539 
  134000    1660.9975   -822.51235     24014.57    15.939168 
  134500     1606.088   -818.13436   -992.68225    16.063968 
  135000    1784.8815   -822.47152   -5318.4485    15.983607 
  135500    1687.5203   -811.10659    2243.6389    15.988344 
  136000    1765.7134   -808.47721    2421.3726    16.012647 
  136500    1669.9645   -812.49992   -10769.266    15.944933 
  137000    1846.3237   -817.45737    4009.9684     15.97765 
  137500    1826.2471   -812.73006    27503.603    15.921578 
  138000    1698.9402   -816.66836   -1347.1687    15.975909 
  138500    1686.0968   -814.71536    9360.1766    15.941152 
  139000    1604.6878   -804.95946   -32602.147    16.107071 
  139500    1726.0673   -814.96525   -2876.2728    16.017879 
  140000    1957.8311   -821.25201    9083.6947    15.952271 
  140500    1933.2734    -821.2163    -2641.782    16.007866 
  141000    1678.6703   -819.16072   -24222.492    16.054993 
  141500     1694.431    -819.9115   -4451.7856    16.040422 
  142000    1682.5985   -814.71926    7626.9175    15.988787 
  142500    1797.5439   -817.98182   -3945.6214    15.974401 
  143000    1882.6649   -817.23659    6127.3037    15.947361 
  143500    1629.6462   -815.48608    -13725.87    15.944452 
  144000    1628.0261   -811.51728    221.86121    15.986218 
  144500    1795.3706    -815.5672    12565.003    16.064422 
  145000    1713.4571   -812.60561   -11127.713    16.027513 
  145500    1841.7575   -814.67243    2463.2871    15.984578 
  146000    1736.4525    -814.8439   -13377.288    15.969741 
  146500    1633.8593   -812.65286   -13017.712    16.013544 
  147000    1643.9669   -814.56123    13169.057    15.887102 
  147500     1722.039   -818.20582    6950.1402    15.986341 
  148000    1784.5697   -819.54983    519.80679    15.967799 
  148500    1808.7363   -815.20442    10743.264    15.995786 
  149000    1612.7808   -821.24675   -12092.731    16.001542 
  149500    1760.7494   -819.95182   -10968.138    16.011981 
  150000    1601.8061   -817.91127   -4648.4991    16.014967 
  150500    1735.0972   -817.14095    2764.9221    15.972178 
  151000    1669.2302   -816.94578    2414.8377    15.981554 
  151500    1771.0727   -813.62493      8159.77    15.999465 
  152000    1652.4124   -809.99969    8575.9944    15.983371 
  152500      1575.52   -808.13657   -3981.8382    15.991097 
  153000    1594.9987   -811.68793    5924.3939    15.963193 
  153500     1773.567     -817.924   -5391.9083     16.08282 
  154000    1651.3083   -820.30467   -17674.981    16.013137 
  154500    1590.3613   -825.60792    1346.2119    16.015598 
  155000     1725.988   -822.46495    9852.3199    16.082945 
  155500    1624.9419   -826.53247   -11249.812    16.038133 
  156000    1723.9157   -823.10496    5207.6434     16.00814 
  156500    1626.5882   -822.18869    1914.9977    16.073287 
  157000     1803.237    -822.9413   -3272.9625    16.136546 
  157500    1604.6524   -816.99062   -16719.729     16.13098 
  158000    1564.5957   -825.77979   -193.82549     16.08497 
  158500    1560.8716   -828.28543    8004.0489    16.090032 
  159000    1856.6493   -822.60164     16130.97    16.088224 
  159500    1729.6252   -828.94023     206.2905      16.0572 
  160000    1485.7159   -824.21391    9718.1639    16.057854 
  160500    1524.7064   -817.61364    3917.7038    16.061204 
  161000    1716.2642   -817.24742   -20263.774    16.119076 
  161500    1697.1034   -810.18021   -9075.6176    16.040023 
  162000    1864.9273   -817.33167    26837.594     16.01527 
  162500    1680.6958   -822.47183    1289.8027    16.051944 
  163000    1804.0451   -818.25598   -3902.9525    16.100939 
  163500    1735.2592   -816.11531    11420.562    16.002922 
  164000    1647.5561   -819.20665    8874.5362    16.040769 
  164500    1645.2238    -821.3932   -4100.4413    16.019018 
  165000     1710.345   -825.20108   -5697.3072    16.052719 
  165500     1631.794   -827.30189    5720.4885    16.066997 
  166000    1946.8217   -813.39478   -13593.907    16.158435 
  166500    1548.0938    -822.0098    1910.3954    15.992742 
  167000    1699.5128   -821.38508    20114.139    15.932739 
  167500    1756.3561   -814.17032    6132.9015    16.023729 
  168000    1614.5757   -813.13589    6005.7741    15.957896 
  168500    1831.6418   -817.19283     -1926.33    15.999982 
  169000    1743.0448   -818.91712   -18288.981    16.024684 
  169500    1842.9796    -815.2952   -8698.5207    16.018063 
  170000    1631.2169   -813.14072    8433.3059    15.944988 
  170500    1594.4372    -814.7097    21162.345    15.891843 
  171000    1747.4381   -809.75111    3480.5124    15.962918 
  171500     1706.806   -808.55423   -12395.116    16.018469 
  172000    1819.6528   -817.04092    7682.3382    15.926125 
  172500    1764.8711   -817.10873    15294.845    15.911622 
  173000    1665.7597    -815.5366    10738.187     16.01817 
  173500    1795.8662   -815.09702   -6049.2933    15.997838 
  174000    1732.5235    -815.6502   -5645.2082    15.984196 
  174500    1704.9294   -819.44054    17328.831    15.948928 
  175000    1871.2723   -818.47832     33124.92    16.023481 
  175500      1744.95   -820.33047    996.71333     15.95113 
  176000    1634.0264   -818.53059   -2157.2461     15.96793 
  176500    1706.1959   -814.09368   -12357.572    16.001962 
  177000    1697.4646   -814.53603    9854.4355    15.983318 
  177500    1749.6202   -818.98341   -10120.816     16.01933 
  178000    1747.4008   -816.18358    11667.786    15.943322 
  178500     1920.515   -814.93877   -14218.011    15.988186 
  179000     1853.036   -815.55031    7862.9107    15.964554 
  179500    1764.8477   -814.30198   -6017.4305    16.064529 
  180000    1828.8273   -812.86014    1159.6978    16.048135 
  180500    1673.2428   -817.25233   -700.10473    15.917786 
  181000    1829.8189   -811.72336    2756.2427    15.962359 
  181500    1681.4138   -807.45112   -15309.152     16.11054 
  182000    1612.4868   -810.16548    192.79297    16.077634 
  182500     1599.937   -814.90794    -7819.871     15.98752 
  183000    1554.2846   -811.86552   -1138.8758    15.996586 
  183500    1540.3016   -813.30471    5062.6535    15.942542 
  184000    1640.8575   -811.99749   -21124.515    16.055055 
  184500    1780.1005   -815.82803    7220.7957    15.947651 
  185000    1837.9345   -810.53079    6012.8478    16.012936 
  185500    1657.3547    -813.3793   -15842.582    16.119495 
  186000     1693.828   -817.05764   -17562.554    16.037495 
  186500    1505.0786   -814.99783    25146.107    15.922217 
  187000    1684.6797     -815.297    6935.0962    15.971479 
  187500    1752.0345   -812.74933    42635.813    15.946366 
  188000    1715.5093   -818.46283   -13046.415    16.046639 
  188500    1890.0951    -818.6364    -17651.68    16.019844 
  189000    1526.4533   -815.34214    1382.7332    16.003683 
  189500    1633.5394   -816.31565   -2262.2631    15.958275 
  190000    1750.4273    -810.0347    -2744.557    15.936963 
  190500    1583.4449   -818.26026    3757.2044    15.979165 
  191000    1683.9005   -817.06888    10855.683    15.956038 
  191500    1548.9762    -814.1399   -11328.088    16.054844 
  192000    1584.1096   -815.08726    27343.799    15.958947 
  192500    1752.0111   -819.22238    3170.7232    16.007148 
  193000    1761.0043   -821.14217    13535.939    15.996351 
  193500    1752.8444   -828.61507   -2546.4629    16.078421 
  194000    1698.7133   -831.71618    12478.427    16.106601 
  194500    1714.1404   -834.49503   -23697.077     16.26395 
  195000    1853.1467   -832.48422    1340.1119    16.136109 
  195500    1577.6679   -832.55558   -7985.3279    16.110365 
  196000    1800.9182   -829.39003   -139.84093    16.148547 
  196500    1770.7448   -831.55054    3771.9084    16.120534 
  197000    1754.8336   -827.28591    4649.1938    16.054074 
  197500    1684.2522   -822.84688    14179.388    16.068859 
  198000     1750.761   -830.41207    9565.1888    16.149198 
  198500    1759.2404   -835.40727   -2157.4575    16.151347 
  199000    1684.3852   -829.97134   -9769.3866    16.193255 
  199500    1803.8119   -828.56987   -1695.6273    16.218224 
  200000    1625.4507   -833.66233    7125.9083    16.158209 
  200500    1676.7361   -836.75621    -3524.001    16.185722 
  201000    1713.0127   -838.12263    5843.6415    16.223262 
  201500    1811.9738   -837.43081   -11824.829    16.254459 
  202000    1720.2193   -836.65311   -7657.4866    16.256706 
  202500    1678.3971   -840.79175   -4326.5326    16.275928 
  203000    1824.9979   -844.09111    9095.5525    16.215155 
  203500    1718.6506   -845.78273     20975.43    16.185153 
  204000    1826.5124   -849.03981   -6164.2398    16.304083 
  204500    1745.3746   -850.95033    7718.5291    16.245149 
  205000    1646.4112   -847.75656    16559.837    16.243393 
  205500      1842.75   -844.03694   -113.29946    16.328665 
  206000    1543.3806   -856.81966   -9955.3594    16.349283 
  206500    1760.3832   -849.10975    13759.666    16.240265 
  207000    1702.0698   -839.15999   -11006.713    16.362709 
  207500    1537.0039   -844.39037   -13679.543    16.300038 
  208000    1614.5512   -851.05233    13727.578    16.230941 
  208500    1694.5677   -845.97678   -3609.9002     16.29326 
  209000    1689.6648   -846.55453    9295.7443    16.237358 
  209500     1710.967   -840.13096    715.05459    16.228031 
  210000    1834.1667   -840.35107     12433.55    16.218048 
  210500     1751.322   -833.54053     7456.016    16.173166 
  211000     1614.349   -835.30612    13345.632    16.142489 
  211500    1687.3953   -835.05665   -13908.244    16.202004 
  212000    1610.2101   -826.22913    5615.9864    16.178355 
  212500    1731.2162   -827.84539    2100.9777    16.193831 
  213000    1843.3696   -831.38915    677.74145    16.094985 
  213500    1636.6597   -824.40299    10027.612    16.070337 
  214000    1754.1797   -827.74963   -88.550931    16.072585 
  214500    1592.9965   -819.76128    26192.597    15.976334 
  215000    1733.7806   -821.06937    -11965.21    16.053324 
  215500    1643.4288   -820.40122   -21576.709    16.129542 
  216000    1782.1206   -822.70403    22356.499     15.99781 
  216500    1652.1035   -827.61592   -3845.9052    16.075534 
  217000    1709.3907   -822.64725   -15111.043    16.064756 
  217500    1590.9007   -815.75275    3648.5065    16.013237 
  218000    1553.8112    -820.6509    6810.6861    16.007017 
  218500    1624.1309   -822.10269   -7486.0457    16.111344 
  219000    1773.0787   -818.31561   -14135.152    16.097045 
  219500    1627.8089   -821.84686   -14058.358    16.070622 
  220000    1702.8955    -819.7606   -3639.3037    16.114585 
  220500    1866.4679   -822.94756   -16163.338    16.153438 
  221000    1907.5597   -823.95923   -11819.688    16.111017 
  221500    1683.4731   -831.95318   -6449.4379    16.093616 
  222000     1701.401    -832.3368    7831.7227    16.138226 
  222500     1640.305    -821.5036    59.778952    16.125078 
  223000    1687.7328   -827.82988    -3568.803    16.091513 
  223500    1650.2273   -829.32973   -26340.867    16.141515 
  224000    1681.5422   -824.21212   -21926.967    16.258337 
  224500    1793.0776   -829.29151    2568.8451    16.138357 
  225000    1581.2209   -836.98123   -3558.0762    16.206108 
  225500    1702.6146   -836.18693   -12850.728    16.251864 
  226000    1756.1304   -833.91538    1625.5392    16.189418 
  226500      1596.19   -833.92469   -9607.4083    16.152668 
  227000    1641.6904   -839.36784   -9679.7696    16.183218 
  227500    1824.2949   -843.41053    9796.5254    16.165144 
  228000    1774.2114   -839.55956    77.064193     16.19531 
  228500    1478.0514   -838.76646   -14186.044    16.209899 
  229000    1744.1703   -854.04066   -338.85153     16.28031 
  229500    1723.2758   -853.99165    -16795.09    16.399865 
  230000    1643.2048   -856.06949     8633.027     16.30254 
  230500    1562.1381   -865.74536   -4374.9178    16.390825 
  231000    1649.0404   -860.97303   -262.08446    16.348723 
  231500    1559.1672   -868.47772   -6209.7881    16.353076 
  232000    1866.3367   -867.87779    3332.7986     16.34794 
  232500    1766.1965   -867.46142   -5992.0695    16.392318 
  233000     1712.205   -870.98944     11984.75     16.29714 
  233500    1705.2129   -878.14553   -4509.2661    16.370114 
  234000    1590.5185   -875.87796   -4938.8433    16.394979 
  234500     1689.827   -862.99241    7467.9301     16.32401 
  235000    1673.7902   -870.05649   -6922.9841     16.40195 
  235500    1679.0361    -871.7752    1424.7737    16.343686 
  236000    1624.0684    -862.7379    6072.6051    16.320357 
  236500    1772.2874   -862.21137    2308.5454    16.335568 
  237000    1758.2958   -860.62323   -4690.5734    16.317156 
  237500    1639.2525   -856.91057    3943.1971    16.294321 
  238000    1531.5438   -860.02791    3935.4215    16.308147 
  238500    1641.4058   -853.29068   -12206.347    16.347312 
  239000    1642.3143   -854.88628   -721.31789    16.301603 
  239500    1498.0137   -854.38554   -14768.069    16.399106 
  240000    1686.8314   -858.25354    15193.772    16.244547 
  240500    1687.2813   -852.23935   -19103.911    16.413698 
  241000    1794.4028   -858.64841   -2669.9862    16.340985 
  241500    1662.5754   -862.19056   -3414.6381    16.361028 
  242000    1661.1871   -861.08609    4500.1747    16.307832 
  242500    1677.7926   -852.28509   -17837.461    16.328379 
  243000    1822.5259   -857.14186    5574.2588    16.236204 
  243500    1841.6891   -852.26021   -13981.179    16.326732 
  244000    1692.4725   -852.62361   -5829.4616    16.336926 
  244500    1596.0314   -850.49854     18274.85    16.189318 
  245000    1609.3751   -847.27195   -5654.1592    16.349122 
  245500    1547.3564   -849.77323     10846.42    16.238785 
  246000    1735.2725   -847.67442   -5061.7135    16.369495 
  246500    1574.3743   -847.60737    10546.015    16.164945 
  247000    1736.8181   -846.25643   -6884.4714    16.266641 
  247500    1672.8248    -842.5938   -4327.6184    16.249725 
  248000    1806.1338   -840.47305    9102.3581     16.21887 
  248500    1809.9112   -838.59684   -2703.2509    16.247227 
  249000     1641.598   -835.89335   -18558.034     16.27726 
  249500    1650.7122   -833.04721   -6383.2722    16.156002 
  250000    1661.9819   -829.41936   -4270.3894    16.186529 
  250500    1785.4052   -831.27796   -4394.1247    16.177074 
  251000    1668.1208    -838.3356   -5641.8239    16.239302 
  251500      1692.87   -838.74705   -7845.8673    16.264972 
  252000    1769.7213   -838.77499    4727.8806    16.254078 
  252500    1708.5081   -834.02278    29847.174    16.116723 
  253000     1667.568   -831.73393    8028.8573    16.167232 
  253500    1543.0766    -830.8044   -3749.0791    16.199758 
  254000    1591.0132   -835.14626   -3735.1684    16.220974 
  254500    1733.6826   -836.79864   -5045.2845    16.257742 
  255000    1728.6568   -846.24082    3228.5106      16.2603 
  255500     1597.928   -844.05208   -11550.466     16.28011 
  256000    1752.7239   -837.71919    20666.605    16.124014 
  256500     1800.226   -837.96878    11733.383    16.208753 
  257000    1790.8978   -848.19228   -15594.676    16.351014 
  257500    1635.3735   -849.90177    13998.565    16.190863 
  258000    1708.3276   -844.15735   -6343.2024    16.333084 
  258500    1704.5747   -848.01168    5699.7692    16.295174 
  259000    1723.5739    -845.3197   -3488.9636    16.326556 
  259500    1747.9126    -846.0339   -12383.762    16.333289 
  260000    1594.4849    -854.6199    25333.382    16.217743 
  260500    1921.2766   -855.78126   -8998.0659    16.319276 
  261000    1857.2433   -851.66204    728.60296    16.307906 
  261500    1597.4702   -863.53505   -7307.0242    16.353735 
  262000    1743.5688   -867.77196     9475.961    16.325069 
  262500    1693.1615   -864.32464     3504.828    16.343259 
  263000    1783.3648   -876.97298   -4411.0844    16.375404 
  263500    1752.6782   -877.44221    7379.2304    16.319223 
  264000    1781.0765   -878.37426   -9121.3254    16.446178 
  264500    1779.6146   -885.38699    7556.4772    16.334414 
  265000    1636.2094   -898.85359   -1990.6752      16.3774 
  265500     1565.646   -892.52327    -396.6247    16.376059 
  266000    1835.9355   -899.92768    1930.0743     16.36709 
  266500    1741.2352   -890.97342    593.29235    16.372703 
  267000    1793.1582   -898.38589    472.82026    16.372278 
  267500    1671.9635    -895.0539    -2598.733    16.386609 
  268000    1622.7846   -895.16177    1464.5804    16.363417 
  268500    1813.6811   -892.38415   -1121.2938    16.394063 
  269000    1806.4408   -898.32044    2200.3336    16.365156 
  269500    1572.0551   -896.36606   -7047.7634    16.413171 
  270000    1620.5132   -895.26114    10118.741    16.318627 
  270500    1739.9412   -896.36385   -12365.013    16.453139 
  271000    1811.6251   -894.66924    4258.3388    16.353499 
  271500    1673.2884   -893.52522   -4293.3686    16.399067 
  272000    1793.1879    -891.9679    6252.4432    16.351535 
  272500    1714.1603   -898.86998   -7342.3163    16.416114 
  273000    1690.6915    -887.4188    14316.243     16.30839 
  273500    1729.1801   -894.36575   -14202.046    16.462159 
  274000    1642.3591   -891.36356    11515.914    16.322381 
  274500    1912.5493    -892.5261   -8277.5742    16.433271 
  275000    1718.8367   -892.57602    5400.7997    16.343196 
  275500    1713.4028   -892.06905   -6915.7121     16.41912 
  276000     1741.882   -894.64017    4976.6622    16.350374 
  276500     1652.059    -880.5344   -744.89556    16.386564 
  277000    1866.7607   -880.45107   -8588.2021     16.44557 
  277500    1709.4457   -878.66846    8032.9707     16.31499 
  278000    1755.7499   -874.66726   -6901.1237     16.40848 
  278500    1694.9816   -877.21965    3004.9422    16.343137 
  279000    1754.5956   -879.70636   -687.91272    16.374104 
  279500    1741.8783   -876.23154   -3172.6042    16.387671 
  280000    1629.8468   -869.87599    5130.4503    16.290663 
  280500     1593.196   -863.81846   -23523.354    16.452275 
  281000    1599.6427   -863.16367    8768.8979    16.308055 
  281500    1584.3073   -868.98322   -8552.4181    16.367739 
  282000    1729.7699   -860.88085   -2857.2785    16.395174 
  282500    1778.7557   -866.01054    9417.6062    16.337998 
  283000    1763.7516   -870.01128    -2701.747    16.388829 
  283500    1754.1968   -874.59402    1051.5755    16.373484 
  284000    1524.8092   -871.52824    2397.8843    16.359662 
  284500    1775.7825   -874.71382    56.566468    16.355997 
  285000    1609.1847   -869.00279   -5038.6687    16.371695 
  285500    1814.4301   -871.03679    14635.472    16.280161 
  286000    1563.7018   -856.82781   -20110.203    16.385437 
  286500    1701.4511   -860.48218    6679.2898    16.322265 
  287000    1842.1396   -862.38637   -3461.2007    16.368365 
  287500    1729.4339    -856.7113     2556.536    16.286441 
  288000    1720.9772   -864.38818   -1989.2096    16.346153 
  288500    1682.0591   -858.64365    11805.838     16.23336 
  289000    1807.1251   -860.62126   -3026.9688    16.366911 
  289500    1800.7054   -866.93857    16495.968    16.266588 
  290000     1616.306   -855.52402   -3883.0735    16.363491 
  290500    1718.4067   -856.08618    1854.4777    16.267043 
  291000    1725.4906   -860.13934   -2361.1533    16.337727 
  291500    1652.1654   -863.09795    -1115.427     16.33672 
  292000    1718.1149    -870.2994    6901.1328    16.308341 
  292500    1824.5838   -864.98139   -1841.0182    16.366578 
  293000    1672.0407   -857.03674     3033.964    16.292408 
  293500    1733.7277   -852.39259   -11797.466    16.379163 
  294000    1781.6458   -854.85964    13782.462    16.232608 
  294500    1637.7674   -844.92746   -12636.515    16.328155 
  295000    1644.8763   -840.37492   -5872.2236    16.296795 
  295500    1677.3285   -850.45506    4959.3804    16.227208 
  296000    1644.5829   -844.98995   -394.26137    16.259713 
  296500    1717.5565   -850.28418    549.98831    16.304502 
  297000    1733.9161   -854.51708    9311.2997    16.223737 
  297500     1660.887   -857.86576    3340.1092    16.287318 
  298000    1582.2921   -856.49565    9007.5442    16.334481 
  298500    1660.4108   -853.62858   -3958.4901    16.352253 
  299000    1853.4041   -854.48496   -568.78821    16.322014 
  299500    1727.0372   -854.19245    3223.5102    16.277924 
  300000    1662.2478   -847.81321   -8562.0869    16.306962 
  300500    1781.5442   -844.51284    4633.2339    16.247797 
  301000    1748.6395    -844.8826    768.36856    16.247587 
  301500    1962.8726   -847.08703     7408.308    16.256675 
  302000    1762.8333   -850.29748   -5809.9032    16.315648 
  302500    1840.0072   -841.37319    12984.365    16.227136 
  303000    1571.3297   -841.35968   -8650.2554      16.3284 
  303500    1755.1503    -838.0199   -4755.8271    16.305026 
  304000    1793.4447   -836.80481   -739.19087    16.283467 
  304500    1621.4134   -832.94202    9876.8375    16.224069 
  305000    1563.3819   -834.31506    1457.0777    16.180044 
  305500    1765.0529   -825.50768   -1677.4843    16.197823 
  306000    1677.3285   -821.22625   -12385.061    16.227385 
  306500    1748.7184   -821.18661   -1249.0149    16.109095 
  307000    1654.5011   -819.87478    -5457.411    15.973855 
  307500     1706.461   -810.97815    12670.735    16.001041 
  308000    1559.0477   -816.07313   -4524.3528    15.939506 
  308500    1965.3727   -818.28716     9974.928    15.883016 
  309000    1494.0751   -817.89713    116.25883     15.95902 
  309500    1676.0205   -820.82684   -3880.0634    15.943026 
  310000    1481.0417   -816.26405    1926.2193    15.885682 
  310500    1714.4009   -807.91857   -5507.9899    15.988102 
  311000    1794.9257   -814.57819   -19513.916    16.031275 
  311500     1704.276    -809.0105    15345.221     15.97608 
  312000    1777.4256   -812.40777   -6412.6244    15.937522 
  312500    1566.2259   -821.74181   -8638.2768    15.999564 
  313000    1667.2448   -815.88906    19639.186    15.897185 
  313500    1759.7225   -815.27479    -3052.712    16.025073 
  314000    1554.4725    -824.1737   -4506.8534    15.936465 
  314500    1624.6622   -818.40471    4818.2614    15.933749 
  315000    1807.2271   -821.69141    4477.3966    15.958805 
  315500    1736.9066   -821.37432    21849.562    15.983436 
  316000     1924.413   -815.14745   -16727.182    16.075113 
  316500    1737.5862   -821.15411    815.54945    15.998861 
  317000    1618.2726   -815.79627    1372.1608    15.996668 
  317500    1808.8907   -821.39397    1556.5412    16.026635 
  318000    1747.1473   -818.76909    14511.352    15.992928 
  318500    1905.1411   -816.75001    8508.7373    15.951608 
  319000    1745.2133   -816.00667   -1343.9462    16.012361 
  319500    1642.4108   -817.37013     29554.22    15.976454 
  320000    1556.5889   -817.37119   -4235.5211    16.062398 
  320500    1674.3889   -823.49835   -9916.9907    16.066307 
  321000    1735.1439   -818.91117    7093.1043    16.035828 
  321500    1700.1348   -824.74423    2303.2364    16.069707 
  322000    1550.5535   -824.60776   -7707.0356    16.084289 
  322500    1719.6401   -823.94531    19251.553    16.036887 
  323000    1611.0978   -822.70006    13706.004    16.001777 
  323500    1657.6075   -820.20451    -19778.55    16.101706 
  324000    1624.2088   -815.03876   -13070.108    16.047829 
  324500    1720.2132    -815.8638    6699.8509     15.99483 
  325000    1882.1493   -817.05828   -22346.677    16.016107 
  325500    1819.2268   -818.57299   -20399.561    16.053274 
  326000    1620.4913    -814.5893   -17.243602    15.962118 
  326500    1710.1677   -817.56187    6374.4833    16.035663 
  327000     1770.645   -818.27952   -4459.9131     16.00583 
  327500    1587.0629   -820.61092    3971.4652    15.980127 
  328000    1840.4182   -811.94597    9177.1727    15.993662 
  328500    1614.4956   -809.85852   -15642.569    15.983137 
  329000    1674.2732   -806.26982    15538.769    16.002401 
  329500    1673.4697   -815.08712   -8404.0825    16.009168 
  330000    1591.1603   -811.28133   -11205.962    16.029156 
  330500    1822.2782   -809.61714   -4359.3763    16.047116 
  331000    1605.2529   -813.04995   -9952.9659    16.003234 
  331500    1724.1718   -814.48462   -3914.5009    16.003328 
  332000    1654.0349   -815.72532    20166.426    15.971168 
  332500    1569.6573   -810.61884    12521.312    15.971518 
  333000    1801.5087   -806.31047   -23997.979    16.074419 
  333500    1707.9714   -813.94195   -7833.5395    16.000265 
  334000    1605.1744   -815.53715   -7199.7584    16.008982 
  334500    1788.3861   -814.34257    10836.081    15.964357 
  335000    1673.9844   -812.00011   -13506.084    15.974339 
  335500    1527.6539   -811.10399    2406.5456     15.93817 
  336000    1579.3302   -817.29126     2880.495    15.913008 
  336500    1426.2723   -814.61433   -16614.341    16.006072 
  337000    1715.5437   -815.78819    3568.8183    15.993797 
  337500    1619.5252   -813.06758    18920.664    15.926276 
  338000    1802.0968   -814.28184   -6406.5741    15.977361 
  338500    1779.4018   -818.32719   -15275.181    16.078656 
  339000    1864.2735   -820.23141   -2514.6066    16.007905 
  339500    1627.3749   -812.32846    7251.3066    15.950528 
  340000    1588.2306   -810.60616   -18822.516    15.994456 
  340500    1831.6962   -813.06036    -6591.374     16.03382 
  341000    1515.0896    -824.8507    20557.221    15.924561 
  341500    1569.3079   -818.20069    13025.444     15.91517 
  342000    1675.1614   -813.20033     23614.41    15.905946 
  342500    1596.0137   -818.28746    -18186.38     16.02502 
  343000    1768.6654   -816.98437   -14524.606    16.069368 
  343500    1838.0287   -818.52853   -13662.526    16.067607 
  344000    1729.9633   -820.33672   -13115.424    15.985934 
  344500    1700.5839   -812.19317    6975.8839    16.002256 
  345000    1556.6565   -814.23733   -3247.7369    16.019075 
  345500     1705.583   -819.54705     6706.319    15.993527 
  346000    1765.1627     -817.894    25266.722    15.936215 
  346500    1732.5822   -816.01465    11546.303    15.966464 
  347000    1683.3973   -811.85059   -3748.3844    15.959574 
  347500    1697.6549   -818.14305    4272.4923    15.984753 
  348000    1743.5977   -811.74561   -5927.0061     16.02199 
  348500    1952.6313   -814.38599    16334.148    16.044931 
  349000    1824.5854   -818.05561    22522.344    15.941721 
  349500    1722.7647   -813.92429    2985.6917    15.987323 
  350000       1701.6   -812.46794   -737.66214    15.927799 
  350500     1704.308   -812.56861    67.034601    16.003304 
  351000    1826.5201   -812.67541   -372.11139    16.053075 
  351500     1463.461   -813.68552    2621.8933    16.000092 
  352000    1644.6244   -810.57595   -5451.2596    15.993154 
  352500    1711.2055   -815.75441   -1077.4352    15.946852 
  353000    1613.9599   -813.36724   -16838.087    15.947448 
  353500     1664.676   -816.58698   -15162.775    16.052283 
  354000    1669.6257    -808.5601    13498.832      15.8876 
  354500    1840.3956   -815.96908    8151.2934     15.91594 
  355000    1817.2979   -808.27204    8193.8882    15.985103 
  355500    1535.8834   -810.57487   -7925.7136    15.981921 
  356000    1652.9148   -810.95744   -6930.1384     16.00536 
  356500    1710.0088   -809.15632    10578.688    15.996413 
  357000    1587.2699   -815.11736    11201.012    15.941693 
  357500     1564.468    -816.1319    2609.9615    15.951511 
  358000     1887.657   -818.56329   -9637.5716    16.046488 
  358500    1608.6131    -819.4362   -4562.5374     16.01327 
  359000    1844.8145   -814.62918    3287.2446    15.970544 
  359500    1729.8367   -816.10126     22718.62    15.979581 
  360000    1531.2275    -819.3869   -12411.219    16.064132 
  360500    1694.5053   -816.11024   -15298.829    16.008124 
  361000    1763.7774   -816.03412    10781.354    15.967994 
  361500    1597.1275   -820.50798   -8087.4093     16.01487 
  362000     1794.532   -811.66696    21756.582    16.007627 
  362500    1727.5354   -816.05277    15202.451    16.007892 
  363000    1653.5633   -818.65141   -7738.5675    15.997279 
  363500    1741.2462   -817.50344   -5169.3914    16.069982 
  364000    1823.1507   -819.24109   -9139.9553     16.03924 
  364500    1637.4317   -820.55861   -6586.3136    16.043214 
  365000    1658.9023   -822.65741    1538.8191    16.047042 
  365500    1779.2477    -825.8601   -3498.5027    16.105376 
  366000    1768.3289   -820.79908    -6775.789    16.186214 
  366500    1746.7063   -830.46733    4333.1292     16.09822 
  367000    1713.2199   -823.20399    -27792.03     16.24825 
  367500    1590.7942   -825.63516   -10785.386    16.235341 
  368000    1739.8811   -830.98913    4471.9118    16.106293 
  368500    1730.6102   -829.33366    12378.932    16.120277 
  369000    1553.0619   -830.78588    3075.9549    16.148714 
  369500    1608.6882   -836.04239   -182.50889    16.156186 
  370000     1646.126   -822.55876    17536.951    16.057098 
  370500    1569.6222   -828.10194   -761.42436    16.190845 
  371000    1632.6609   -826.64934   -8615.1259    16.155415 
  371500    1626.9117   -824.18333    -24968.05    16.243125 
  372000    1665.7889   -823.56861    17473.424    16.064466 
  372500    1828.1375   -825.16326    7092.6966    16.049927 
  373000    1761.5238    -822.2154   -21090.142    16.145869 
  373500    1722.7043   -824.57885    11002.774    16.046769 
  374000    1800.5603   -821.61927   -14710.354    16.033558 
  374500    1630.7993   -821.72488   -5819.7716    16.083575 
  375000    1569.9789   -822.92324   -32325.983    16.122966 
  375500    1729.9436    -819.2565    4277.2379    16.064475 
  376000    1587.9366   -822.15635   -7499.0176    16.099356 
  376500    1770.4246   -822.37979    8046.0681    15.997958 
  377000    1695.7692   -812.81416    13126.431    16.013203 
  377500    1717.3375   -815.32448    3088.5236    15.937703 
  378000      1422.58   -822.85006    8242.5808    15.989795 
  378500     1613.782   -818.27025    1170.7832    15.990652 
  379000    1720.9322   -815.12458    13777.167    15.967265 
  379500    1590.2542   -811.43145    11790.838    15.983603 
  380000    1644.7387   -813.71149    5080.2763    16.002474 
  380500    1579.7276   -817.38417    896.43742    15.943657 
  381000    1693.2394   -813.24989   -11867.001    15.990799 
  381500    1729.0318   -812.43381    9258.8974    15.960638 
  382000    1694.8607   -814.49881    24709.938    15.946228 
  382500    1652.9237   -818.06404    10147.798    15.957742 
  383000     1626.831   -820.79295    9287.1788    15.977715 
  383500    1886.8036   -817.60923   -2031.5989    15.991831 
  384000    1756.4614   -813.88427    17429.557    15.915387 
  384500    1768.8618    -817.6922    3772.2194    15.945133 
  385000    1870.7606   -817.54962   -4722.5822    16.041603 
  385500    1552.5383   -811.74225   -24436.125    16.029976 
  386000    1715.4056   -819.56104    9193.8796    15.953962 
  386500    1668.0692   -817.53299    19189.734    15.912832 
  387000    1629.7168   -819.58238    1486.9845    15.944468 
  387500    1717.2473   -811.50988    3644.2282    16.028655 
  388000    1608.2278   -815.33899    7266.3746    15.985656 
  388500    1587.8065   -816.67764   -2266.9667    16.019109 
  389000    1541.1774    -816.8104    11065.998    15.988269 
  389500     1727.679   -818.84755   -2926.0239     15.96942 
  390000    1829.8062     -809.281    15809.144    15.937717 
  390500    1729.3985   -815.79928   -10305.925    15.932276 
  391000     1620.977   -816.74591    15128.511    15.980918 
  391500    1591.0226   -814.37829    14262.907    15.927969 
  392000    1522.4766   -817.38507   -17174.238    16.005085 
  392500    1718.9832    -816.2075    3346.4277    16.001476 
  393000    1621.5045   -813.92997   -4588.2821    15.984029 
  393500    1937.9277   -809.44718    11615.373    15.953101 
  394000    1508.0566   -814.16901    5682.0408    16.016951 
  394500    1743.4271   -815.20943     16423.86    15.964498 
  395000    1685.0082   -815.62586   -12361.587    15.984345 
  395500    1579.7126   -812.82748    7734.3816    15.947098 
  396000    1554.7773   -815.16745    -13243.38    15.957624 
  396500    1570.9017   -811.77234    4147.9108    15.926764 
  397000    1625.4921   -815.50278   -2699.2534    15.969933 
  397500    1503.6975   -816.61305    5522.3034    15.975394 
  398000    1789.7324   -817.28614   -11423.351    16.025356 
  398500    1831.5928   -818.24431   -10582.869    16.020953 
  399000    1650.5046   -818.82697    3345.5025    16.003769 
  399500    1790.4747   -813.37627   -14583.968    16.021313 
  400000    1536.9391   -808.54925    -1501.952    16.043052 
  400500    1686.1643   -816.12585    747.56592    15.994252 
  401000    1815.6001   -817.17774    -9367.716    15.989344 
  401500    1738.9487   -809.28189   -118.34613    16.015552 
  402000    1710.7444    -814.2589      120.947    16.003192 
  402500    1737.8322   -819.42578   -165.75769    15.991461 
  403000    1798.9351   -820.86498    12035.451    15.894575 
  403500    1601.7221   -817.47208   -11736.566    16.067538 
  404000    1583.4361   -815.32799    1901.2838    15.998881 
  404500    1651.6948   -820.17493   -1930.1831    16.023817 
  405000    1639.1944   -820.51043   -12843.649    16.053014 
  405500    1578.4858    -818.1893    3130.6567    15.981383 
  406000    1693.5022   -823.93805    11424.872    16.064245 
  406500    1846.9378   -821.46949    -7901.341    16.119022 
  407000    1666.9964   -825.96895   -11965.786    16.166596 
  407500    1873.7221   -831.82242    7410.1756    16.083755 
  408000    1674.5445   -829.10702   -10050.684    16.157938 
  408500    1616.8131   -825.02535    -18504.63    16.182554 
  409000    1732.3386   -830.83537    804.86592    16.118709 
  409500    1654.7332   -829.07645   -1790.7109    16.153549 
  410000    1481.6387    -832.0818    4469.7927    16.168025 
  410500    1680.2634   -832.00095   -2802.3936    16.164712 
  411000    1861.6498   -829.91551    14833.106    16.124401 
  411500    1713.8409   -833.97877    20263.815    16.079856 
  412000    1716.2824   -833.41493   -56.865918    16.190764 
  412500    1679.6466   -837.58718   -13137.621    16.284871 
  413000    1729.5441    -836.7629   -4780.7504    16.224087 
  413500    1783.7985   -835.14837   -271.21619    16.209724 
  414000    1683.1206   -832.07451    22449.825    16.120962 
  414500     1787.492   -839.12004    10993.477     16.17057 
  415000    1800.6664   -838.38829   -225.72275    16.241808 
  415500    1731.2835   -843.47349   -16235.158    16.303013 
  416000    1611.7426   -842.77691    6097.4466    16.241651 
  416500    1685.5749   -844.61486     6342.004    16.254587 
  417000    1724.7846   -835.06494   -2479.3372     16.22799 
  417500      1628.64   -831.84619   -7829.1106    16.196051 
  418000    1798.4273   -832.32704    5173.1703    16.142672 
  418500    1753.0544   -831.08026    1547.7638    16.221028 
  419000    1588.1679   -826.92141   -4853.2924     16.19965 
  419500    1761.5452   -826.63648   -7950.6324    16.175485 
  420000    1714.1761   -829.46066    -987.8964    16.134986 
  420500     1724.814   -826.79388    378.39287    16.136268 
  421000    1682.8584   -824.88786    6002.1504    16.135414 
  421500    1896.9892   -815.91125   -20020.745    16.111707 
  422000    1666.3744   -825.32793   -1362.6617    16.063853 
  422500     1741.921   -823.18974   -7853.6508    16.203044 
  423000    1709.9382    -830.1525   -8594.6912    16.137951 
  423500    1646.1512   -833.71862   -8867.7321     16.19956 
  424000    1970.2577   -833.13958    5778.7526    16.184219 
  424500    1673.4221   -835.36229    2843.1234    16.178094 
  425000    1620.4047   -828.03899    8340.1883    16.117576 
  425500      1768.53   -828.47241    9251.9742    16.124275 
  426000    1705.9649   -825.15091   -2342.3937    16.166239 
  426500    1593.8522   -826.95475    14435.616    16.172016 
  427000    1581.8986    -826.8162    3717.5705    16.139114 
  427500    1518.2614   -831.94502   -8749.0937    16.104761 
  428000     1638.178    -824.0916    24030.191    16.055102 
  428500    1707.4012   -823.10296    2298.4851    16.066391 
  429000    1747.5764   -820.18984   -5890.3522    16.065762 
  429500    1621.6967   -820.67902    462.67934    16.053486 
  430000    1623.5279   -819.18158    6025.6891    16.026376 
  430500    1870.9464   -823.09973    13716.986      15.9969 
  431000    1782.1119    -819.5216    11196.984    16.005074 
  431500    1623.0549   -822.76727    14361.652    16.015448 
  432000    1588.8017   -815.52141   -7204.0373    16.010542 
  432500    1698.8564   -816.14958     30578.42    16.022608 
  433000    1752.3969   -816.73293   -3272.6396    15.991686 
  433500    1804.6691   -821.36958    -2465.248    15.988388 
  434000    1750.1554   -817.63338    20166.249    15.904584 
  434500    1738.5114   -822.80696    16576.133    15.967354 
  435000    1822.6919   -817.20966   -8995.0684    16.090665 
  435500    1745.2617   -819.47017   -13644.462    16.088014 
  436000    1505.0881   -821.20092    6928.1736    16.018706 
  436500    1919.5581   -817.25752    18293.328    15.961148 
  437000    1744.8008   -822.66812   -6299.4867    16.033281 
  437500    1625.1509   -821.53519    2973.9281    15.994681 
  438000    1529.1528   -821.10491   -10748.345    16.045771 
  438500    1650.8488   -826.29685    10834.363    15.926818 
  439000    1805.8161   -823.95191    10736.887    16.020427 
  439500    1666.6275   -819.07492   -3394.6526    16.002781 
  440000     1910.948   -820.36674   -4304.4311    16.063985 
  440500    1693.4553   -819.18009   -3007.0239    15.974151 
  441000    1755.6859   -816.61131    6524.6141     15.92995 
  441500     1593.254   -811.38265    16483.619     15.97584 
  442000    1740.2117    -817.9888    -7760.889    16.055293 
  442500    1716.7911   -816.15379   -13848.665    16.022926 
  443000    1740.4103   -817.91262    10150.901    16.000472 
  443500    1823.5294   -806.37854    2274.4281    16.025223 
  444000    1602.2332   -811.16193    6204.7108     16.05006 
  444500    1729.7864   -811.85657   -5570.6919    16.008409 
  445000    1707.2578   -817.04444   -3474.0726    16.003494 
  445500    1800.2437    -809.5203    7461.8191    15.940391 
  446000    1654.0461   -814.15046    10276.224    15.946248 
  446500    1689.3385   -817.80458   -13560.156    16.026801 
  447000    1708.0455   -814.71289    1216.3531     15.97467 
  447500    1656.2793   -815.06525   -11503.025    15.961704 
  448000    1669.1093   -810.97341    6191.2783    15.965964 
  448500     1676.437   -815.15509    5351.8262    15.961857 
  449000    1734.9878   -811.16967    28975.089    15.929846 
  449500    1610.6222   -812.80491    2686.9007    15.971034 
  450000    1685.1857   -813.17875    5614.9016    15.902891 
  450500    1611.9996   -819.57025   -11715.924    16.035284 
  451000    1877.6346   -813.71254   -11768.994    16.011711 
  451500    1741.7544   -815.16358   -8149.6119    16.018077 
  452000    1838.3743   -817.94294   -4505.4468    15.976664 
  452500     1728.012   -820.65245    4223.0839    15.880064 
  453000    1610.2007   -811.42776   -6869.6404     16.01722 
  453500    1630.5946    -813.3833    15503.997    15.978707 
  454000    1750.8717   -818.65654   -3401.9829    15.919488 
  454500    1614.3007   -813.51847    4931.0836    15.946204 
  455000     1725.131   -816.45825   -10919.873    16.026706 
  455500    1847.4369   -823.40989   -21344.679    16.031305 
  456000    1561.8611    -816.3926    18898.936    15.964293 
  456500    1732.6662   -825.17549    12555.817    16.038025 
  457000    1588.1121   -825.22244   -5147.2594    16.042746 
  457500    1539.8271   -822.52841   -8355.8789    16.116448 
  458000    1656.7167   -823.35803   -19513.845    16.164961 
  458500    1689.2915   -828.15059   -7617.0576    16.061886 
  459000     1824.051   -822.43149     -3271.64     16.07623 
  459500    1677.4938   -824.53543    2119.0849    16.083375 
  460000    1658.1477   -822.80622     19920.52     16.02613 
  460500    1742.1523   -828.16825    2538.6644    16.128612 
  461000    1836.9672   -824.35443   -6448.3536     16.14795 
  461500    1784.6541   -824.44238   -2855.7564    16.171102 
  462000    1712.2902   -826.65225   -10086.539    16.157172 
  462500    1687.7613   -832.14186    2709.3959    16.150909 
  463000    1765.4609   -828.81415    3935.8051    16.137925 
  463500    1737.7395   -826.63795    1366.4615     16.15256 
  464000    1723.3117   -826.05217     18780.61     16.05304 
  464500    1821.9194    -825.1494    9622.8752     16.05272 
  465000    1879.0057   -820.48016    271.69573    16.099037 
  465500    1860.2764   -830.60281   -509.54023    16.159434 
  466000    1722.2562   -827.93327   -8335.3964    16.223337 
  466500    1587.1527   -828.69293   -9000.7685    16.186479 
  467000    1769.0852   -834.14081   -12698.901    16.187945 
  467500    1748.1279   -839.97168    4447.2533    16.188955 
  468000    1735.5324   -845.04373   -9373.7248    16.254585 
  468500    1590.4913   -842.27547   -1286.0346      16.2577 
  469000    1614.2132   -842.18161    10166.629    16.206576 
  469500    1574.7946   -842.81859   -14319.813    16.284576 
  470000    1520.5537   -845.67795   -2349.2918    16.230823 
  470500    1623.1329   -847.93961   -8464.8799    16.331091 
  471000    1853.8309   -852.78968    148.17199    16.275094 
  471500    1778.4708   -847.24079   -5391.0652    16.300963 
  472000    1733.2679   -852.48495    9523.4849    16.178292 
  472500    1558.0934   -843.99622   -16314.073    16.295811 
  473000    1753.7381    -851.0048    15778.653    16.201469 
  473500    1775.7928   -845.52875   -7057.8063    16.265153 
  474000    1661.1204   -848.20833   -3598.4595    16.300848 
  474500    1682.7173   -854.32001    3146.5987    16.302201 
  475000     1486.702   -867.00464     1793.487    16.321094 
  475500    1823.1309   -864.38353    7270.1942    16.332837 
  476000    1625.0793   -879.69221   -9265.4219    16.441832 
  476500    1534.2478    -875.5705    12169.818    16.287679 
  477000    1701.1054   -871.08869   -15604.831    16.457743 
  477500    1681.3097   -875.18006    5724.2849    16.329963 
  478000    1796.2718   -868.97957    481.42654    16.357238 
  478500    1865.1314   -875.58208   -2377.0603    16.400651 
  479000    1577.7123   -875.56172    4846.6775    16.346271 
  479500    1666.7364   -880.04291   -5300.7767    16.415932 
  480000    1727.5246   -872.00941    6177.8098    16.331719 
  480500    1635.5494   -875.97263    4061.1816    16.351552 
  481000    1725.7699   -877.44823   -9566.6187    16.437153 
  481500    1692.0248   -880.93729    5883.3406    16.350521 
  482000    1544.5894   -882.61547    1445.9469    16.370896 
  482500    1802.5849   -878.47665   -2357.0826    16.392723 
  483000    1720.5117   -873.59557    7075.1632    16.325798 
  483500    1917.4112   -877.99036   -10150.919    16.433453 
  484000    1587.4317   -874.99501    7641.3146    16.322691 
  484500    1680.7838   -871.24214   -3813.6077    16.387475 
  485000    1732.2982   -879.09002   -5459.1194    16.414826 
  485500    1732.2533   -867.30443    7751.3895    16.326653 
  486000     1762.282   -867.05416   -7671.3767    16.381645 
  486500    1797.2259   -861.60152   -1775.5993    16.369104 
  487000    1785.0813   -861.93925   -76.205405    16.342727 
  487500    1552.5663   -871.01662   -2502.4202    16.368491 
  488000    1710.5511    -876.0975    10751.599    16.319409 
  488500    1708.6424   -871.90714   -5481.0802     16.41543 
  489000    1874.8745   -870.04963     1985.632     16.36767 
  489500    1671.5493   -874.42247    52.981948    16.366309 
  490000     1682.913   -884.83163   -8229.2854    16.419381 
  490500    1608.5016   -877.53607    14770.478    16.294162 
  491000    1800.8089   -879.76377   -9835.3965    16.449052 
  491500    1513.0966   -877.93178    3443.3351    16.367129 
  492000    1783.9196   -877.79636    5510.5819    16.352217 
  492500    1705.9224   -879.75833   -7177.0065    16.414989 
  493000    1610.7441   -882.77872    2537.9978    16.347877 
  493500    1563.1179   -873.49483   -3841.5431    16.391565 
  494000    1532.9954   -880.26835   -5672.7776    16.411006 
  494500    1659.1423   -877.80279    10298.003     16.30264 
  495000     1664.469    -871.6129    -8899.122    16.403515 
  495500    1754.0377   -866.42478    5678.1296    16.317664 
  496000    1632.6938   -873.64144    1392.3894     16.32913 
  496500    1682.8192   -874.02195   -416.02026     16.36025 
  497000    1754.0172   -872.58043    3194.4197    16.363569 
  497500    1769.6365   -876.14577   -7915.5138    16.421084 
  498000    1587.1045   -865.47823    8378.5573    16.316717 
  498500    1920.2769    -863.9057   -2428.9289    16.331022 
  499000    1899.9503   -869.11653    1719.2112    16.351839 
  499500    1684.3434   -873.41099    7929.5898    16.334063 
  500000    1782.3128   -874.70022    1227.2207    16.354427 
  500500    1925.5346   -866.56427   -6515.4489    16.392999 
  501000    1702.3836   -873.53229     7869.906    16.311137 
  501500    1680.8404   -871.91559   -6467.2267    16.408298 
  502000    1746.7032   -874.77682    10369.198    16.304538 
  502500    1708.3967   -876.31552   -11326.848    16.440617 
  503000    1846.1436   -875.55732   -2504.7156    16.388055 
  503500    1563.7689   -870.76094   -2882.5667    16.361354 
  504000    1848.5554   -865.94882   -5851.0568    16.392628 
  504500    1692.8379   -873.46516    11706.267    16.299036 
  505000    1650.9373   -878.18354   -14421.426    16.458719 
  505500    1697.7703   -898.96688    5114.8012     16.33951 
  506000    1619.5083   -895.23447   -3009.6144    16.382305 
  506500    1837.4175   -896.95871    2990.8734    16.359442 
  507000    1713.7832   -899.36089    -2711.585    16.386787 
  507500    1649.4792   -897.65759    1586.7996    16.363208 
  508000     1610.524   -893.86116   -1122.2563    16.374692 
  508500    1677.6957   -898.22919    1208.9444     16.37032 
  509000    1758.0795   -897.05151   -2041.9748     16.38568 
  509500    1900.5435   -897.26187    280.77619    16.376868 
  510000    1614.7343   -893.41031   -4409.6587    16.401703 
  510500    1688.9399   -896.32806    5334.9922    16.350477 
  511000    1697.5857   -894.88387   -3765.7097    16.399604 
  511500    1600.1959   -897.02851    3539.4124    16.360333 
  512000    1689.7665   -895.67175   -3706.3716       16.397 
  512500    1674.5078   -898.86363    551.86765     16.37067 
  513000    1712.4776   -896.13468   -1145.2501     16.38634 
  513500    1799.8599   -901.61287   -72.289849    16.378037 
  514000    1753.5852   -898.50492   -1729.2003    16.384899 
  514500    1741.4187   -893.51183    714.48462    16.375368 
  515000    1561.0948   -896.31613   -2567.6547    16.388254 
  515500    1597.8067   -893.84085     1447.197    16.366729 
  516000    1817.2674   -892.24207   -1447.2387    16.395234 
  516500    1633.5076   -895.29562    3134.0551    16.356393 
  517000    1541.7279   -895.46285   -5255.0143    16.393439 
  517500    1846.6468   -891.67811    3766.0432    16.364252 
  518000    1866.0831   -897.24121    -3869.621    16.405009 
  518500    1807.2741   -897.08222    5666.0822     16.34701 
  519000    1665.6955   -896.61274    -10456.87    16.438086 
  519500     1696.569   -897.07848    31298.237    16.206432 
  520000    1706.9149   -898.59434   -13370.523    16.452322 
  520500    1683.6488   -885.44403    9622.9045    16.337149 
  521000     1780.387   -893.13631   -7131.8793    16.418665 
  521500    1965.2046   -897.23085    5659.4626    16.355844 
  522000     1721.059   -897.47637   -5641.4596    16.409974 
  522500    1621.5054   -897.66234    17710.813      16.2848 
[...]
 2356500    1796.3286   -819.41186   -8119.1961    16.034558 
 2357000    1784.6314   -822.97015    28901.593     15.95598 
 2357500    1921.5485   -827.45377    9656.9775    16.044762 
 2358000     1687.113   -823.04998    9062.0307    16.084696 
 2358500    1670.5906   -826.33749    27449.394    16.043915 
 2359000    1662.1737   -829.30028   -9398.6624     16.14451 
 2359500    1607.1107   -831.03983   -2579.7208     16.14234 
 2360000    1811.5602   -830.30118    5327.1475    16.088251 
 2360500    1600.7875   -829.41358   -17019.914    16.186721 
 2361000    1648.0108   -831.86569   -6338.6435    16.176057 
 2361500    1783.2927   -828.77369   -22120.058    16.247588 
 2362000    1765.3748   -828.84464    17414.752    16.095812 
 2362500    2014.8878   -825.17094    6569.4413     16.13123 
 2363000    1529.5088   -823.78838    17735.563    16.097712 
 2363500    1718.2299   -828.61274    10182.882    16.074048 
 2364000    1691.7393   -825.37464   -23872.224    16.157965 
 2364500    1708.8284   -820.72617   -5788.6954    16.058732 
 2365000    1667.6399   -826.86085      2399.38    16.049985 
 2365500    1749.2232   -820.09265     227.1262    16.072124 
 2366000    1642.8383   -819.29857   -8439.5008    16.139603 
 2366500    1769.2536   -818.10863   -4357.1151    16.089842 
 2367000    1597.8833   -821.77049    24127.405    15.951517 
 2367500    1749.0151   -821.64756    12556.918    16.005013 
 2368000    1840.0767   -822.83642   -19715.379     16.10275 
 2368500     1680.771    -815.6431    3902.4861    16.009474 
 2369000     1783.716   -817.45713    -1375.732     16.08388 
 2369500    1822.9398   -823.53732    -16706.36     16.09952 
 2370000    1494.7337   -821.00442   -231.10115    16.077467 
 2370500    1631.3322   -820.06497    13486.869    15.946681 
 2371000    1882.5225   -820.25388    9205.9794    15.974049 
 2371500    1765.9176   -815.89639   -6661.5672    16.006613 
 2372000    1536.6525   -816.92677    452.04942    15.980724 
 2372500    1561.2939   -817.02375   -4864.8682    16.066751 
 2373000    1657.3515    -816.8091   -1215.0628    15.971369 
 2373500    1677.1923   -817.62414   -8251.2539    15.969712 
 2374000    1790.4908   -820.62841    6615.1699    15.890828 
 2374500    1627.2442   -817.57112   -1795.4563     15.98936 
 2375000    1647.1672   -815.92606   -2937.7576    16.066317 
 2375500     1738.642   -810.61059   -11152.283      15.9821 
 2376000    1792.2532   -812.34609   -14659.224    16.068993 
 2376500    1395.6763   -810.06609    5239.1394    16.011061 
 2377000    1761.3913   -812.92311    23059.835     15.90329 
 2377500    1614.8928   -813.54038    2261.2789     15.97546 
 2378000    1571.3501   -814.11841    11748.728    15.960236 
 2378500    1844.7235   -815.93394    8345.8657    16.003794 
 2379000    1659.6951   -807.52243   -6076.2768    16.037868 
 2379500    1716.8894   -818.95485    13510.171    15.968135 
 2380000    1645.9798   -825.26437   -3109.6855    15.991658 
 2380500    1862.1821   -823.09111   -2890.8493    16.018255 
 2381000    1794.5104   -820.52088    5392.9878     16.03491 
 2381500    1651.7549   -822.11802   -21259.941     16.13444 
 2382000    1511.7793    -823.6072    2125.3521    15.964711 
 2382500    1701.6059   -820.39844    5314.1835    15.976172 
 2383000    1566.7268    -811.3456      1355.44    16.001599 
 2383500    1633.3399   -812.09788   -20108.899    16.047819 
 2384000    1769.8888   -815.16092   -2326.0393    16.044988 
 2384500     1680.682   -819.77089   -2412.4748    15.994087 
 2385000    1554.2326   -815.46965   -2617.0385    15.962721 
 2385500    1757.0851   -813.26942    1845.2729    16.011439 
 2386000    1659.3562   -809.79755   -14708.932    16.037889 
 2386500    1558.0679   -814.38172     -9549.26    16.084031 
 2387000     1722.924   -814.99576   -4739.1407    15.972192 
 2387500    1664.1338   -806.84223   -1199.2673    16.001402 
 2388000    1732.5635   -813.51591    -3617.641    16.024723 
 2388500    1559.0176   -812.73782    23207.527    15.908504 
 2389000    1769.9551   -810.60799   -8120.8299    16.053533 
 2389500    1730.8717   -818.99624    14920.496    15.961011 
 2390000    1789.0066   -817.01898    30466.847    15.880001 
 2390500    1737.6144   -822.09482   -22387.993    16.051149 
 2391000    1747.7271    -815.0802   -8628.0109    16.017385 
 2391500    1628.7456   -818.52166    12038.101       15.944 
 2392000     1648.702   -815.03989    11711.764    15.965574 
 2392500    1779.8014   -816.41532    19136.099    15.916608 
 2393000    1661.6074   -810.82169    -11345.46    16.039784 
 2393500    1547.8108   -810.96085    1148.8547    16.014588 
 2394000    1851.5268   -814.99988    7794.8795    15.964297 
 2394500    1730.5228   -810.96048    5810.6889    15.994617 
 2395000    1838.1624    -822.8153   -6853.2518    16.036282 
 2395500    1824.4581   -817.97082    11776.594    16.029981 
 2396000    1798.7286   -818.77939    994.98686    16.042256 
 2396500    1659.1061   -817.92024    5823.9832    15.979401 
 2397000    1724.5367   -822.18653   -13770.675    15.997436 
 2397500    1905.0399   -822.46159   -2227.5466    16.008735 
 2398000    1655.1483   -817.18642    4274.2433    16.003862 
 2398500    1588.0396   -811.35918   -5554.6064     15.99413 
 2399000    1700.1265   -810.50024   -16674.856    16.092362 
 2399500    1779.7422   -818.61118   -6361.9153    15.953132 
 2400000    1739.5672   -814.92787   -5697.6487    15.996376 
 2400500    1600.8862   -813.08487   -11144.205    15.959927 
 2401000    1805.3649   -815.66395   -9278.1459    16.003758 
 2401500    1795.3696   -813.49182    36000.314    15.879784 
 2402000     1698.734     -817.338    4727.5006    15.969453 
 2402500    1737.8639   -816.63344   -4994.0844    15.986663 
 2403000     1814.758   -815.44217    2803.7052    15.939724 
 2403500    1802.1218   -822.70133    13035.723    15.925496 
 2404000    1717.8994   -813.42237   -3208.1176    15.970715 
 2404500    1645.8708   -811.21661   -11881.202    16.122399 
 2405000    1716.3613   -817.56091   -10076.532    16.072379 
 2405500    1653.9876   -818.49207    20960.308    15.914299 
 2406000    1752.8796   -815.14937   -16967.465    16.016305 
 2406500    1741.2279   -816.40961    28193.267    15.927921 
 2407000     1565.356   -812.09366    351.26287    15.957487 
 2407500    1644.9174    -815.7097    8183.5299     15.95388 
 2408000    1735.7249   -816.66711    8187.5763    15.927686 
 2408500    1699.5898   -807.56366     9449.217    15.945683 
 2409000    1552.6518   -814.91251    13023.643      15.9837 
 2409500    1650.5728   -820.34263    15276.166    15.931423 
 2410000    1674.1163   -813.43052   -11452.285    16.034753 
 2410500    1851.7714    -815.5248   -7919.3379    15.991437 
 2411000    1583.1279   -818.60448    15923.477    15.868594 
 2411500    1856.5881   -813.92688    1244.2922    16.005343 
 2412000     1845.367   -807.07548    -5793.021    16.019945 
 2412500    1675.8932   -810.18072   -1381.7938    15.959753 
 2413000    1735.9811   -816.73821    20323.351    15.908517 
 2413500    1638.1051   -808.77263   -3222.2524    16.063972 
 2414000    1772.8129   -805.87522    16765.181    15.967131 
 2414500    1658.8639   -813.90925    7249.5719    15.965486 
 2415000    1642.7174   -810.23313    16286.177    15.910571 
 2415500    1631.9776    -811.3963   -6035.9529    16.034802 
 2416000    1645.1557   -813.92891   -19407.277    16.077102 
 2416500    1611.8962   -814.33541    1309.4561    15.939538 
 2417000    1718.9359   -814.06145    19727.984     15.94572 
 2417500    1670.3799   -807.26315   -6743.4364    16.057423 
 2418000    1683.2205    -816.2992    -3249.344    15.916979 
 2418500    1784.1015     -816.925   -16322.706     15.99765 
 2419000    1769.0402   -813.48095   -14505.664    15.942963 
 2419500    1646.5838   -812.35143    3026.8968    16.036219 
 2420000    1623.9035   -819.84496    -6866.592    16.045814 
 2420500    1640.5324   -811.13222   -228.29144    15.987754 
 2421000    1702.9969   -804.00359    11262.143    15.934145 
 2421500    1811.8871    -813.3577    4001.8734    16.000217 
 2422000    1722.7684   -816.69047    28584.319    15.848218 
 2422500    1798.7513   -819.32373    13375.018     15.92943 
 2423000    1566.1079   -812.82311    16161.031    15.958656 
 2423500     1637.024   -813.46686   -4054.8724    16.043588 
 2424000    1774.6204   -819.36021    -7585.289    15.954053 
 2424500    1725.1071   -819.49865    11158.782    15.932581 
 2425000    1644.9262   -814.70576    41.475552    16.004193 
 2425500    1731.1966   -819.96694   -1656.0664    16.027284 
 2426000    1653.8679   -808.07458   -764.75672    16.005119 
 2426500    1744.6689   -814.87582   -16844.092    16.021437 
 2427000    1765.7231   -815.38243   -2087.4504    15.972296 
 2427500    1796.5019   -808.22391    16218.539    15.942033 
 2428000    1737.6388   -819.11931    15924.804    15.922257 
 2428500    1647.4336   -812.42509    5418.0673    15.990368 
 2429000     1647.206   -814.50474   -13846.181    15.994967 
 2429500    1785.7218     -806.296    6738.9795    15.997837 
 2430000    1575.6454   -809.38117   -2585.4154    16.012038 
 2430500    1709.7605   -810.14201    4947.0182    16.061432 
 2431000    1811.8384   -813.17338    6389.5645    16.000543 
 2431500    1675.5965   -817.86081    26060.295    15.948697 
 2432000    1727.5097   -804.98986   -16410.516    16.057813 
 2432500    1852.9774   -812.31645    16229.704    15.983948 
 2433000     1788.283   -813.39133   -1187.0272    16.032333 
 2433500    1751.5507   -810.55671    10887.293    15.990927 
 2434000    1618.8556   -816.54228   -10524.557    16.015849 
 2434500    1660.7786   -812.07824   -13117.818    15.973407 
 2435000    1552.5467   -813.01842    28403.089    15.924599 
 2435500    1640.9661   -815.67514   -9020.5598    15.986619 
 2436000    1926.7354   -813.52503    2018.7373    15.975902 
 2436500    1529.0554   -816.08997    26757.006    15.913574 
 2437000    1639.8055   -823.70855   -5089.9749    15.957283 
 2437500    1790.9281   -816.65274    10472.972    16.029869 
 2438000     1723.169   -810.69649    28941.925    15.970236 
 2438500    1725.7525   -818.69575   -20361.975    16.015566 
 2439000    1788.1915   -816.47269    11271.444    15.914263 
 2439500     1691.576   -808.51899   -15197.927    16.043218 
 2440000    1561.1107   -819.99362    14878.283    15.970169 
 2440500    1529.7648   -815.70728    16359.494     15.94408 
 2441000    1512.3521   -819.17296    3818.1213    15.929909 
 2441500    1743.4565   -815.21168   -14800.865    16.036262 
 2442000    1687.6946   -815.31466    12071.676    15.948276 
 2442500     1725.178   -820.74365    8869.9984    15.965326 
 2443000    1813.7632   -819.40675   -1216.2604    15.907283 
 2443500     1495.442   -811.01679    11459.053    15.970847 
 2444000    1866.3944   -810.27773    11460.002     15.96479 
 2444500    1805.4067   -818.46032    18414.898     15.92177 
 2445000     1588.588   -819.84036    5918.6819    15.927533 
 2445500    1592.8354   -815.70861   -18293.599    16.036156 
 2446000    1931.1373   -819.26957     17941.37     15.97667 
 2446500    1664.7131   -816.79515   -10920.377    16.026193 
 2447000    1610.5597   -817.99722   -17081.843    15.994374 
 2447500    1668.5631   -818.54994    17003.384    15.951971 
 2448000    1610.7524   -821.23842   -7744.0037    15.958471 
 2448500    1617.9321   -819.61667    3964.8087    15.959862 
 2449000    1633.6028   -817.85691   -8319.3469    16.055816 
 2449500    1864.8677   -811.31746    12779.062     15.97487 
 2450000    1612.1949   -809.09274    24827.958    15.893881 
 2450500    1717.2735   -817.38825    6240.7549    15.930956 
 2451000    1797.1911    -816.6621    12801.735    15.961384 
 2451500    1786.7594   -816.64488   -9019.9452     16.01823 
 2452000    1727.3844   -807.28348   -23365.003    16.071218 
 2452500    1610.7888   -818.05516    5937.2358    15.977631 
 2453000     1806.371   -819.37199    15464.503    15.930585 
 2453500    1614.6834   -820.84946   -1116.5393    16.026972 
 2454000    1801.8313   -822.39163   -482.60148    15.972515 
 2454500     1766.904   -815.55362   -15286.563    16.082028 
 2455000     1512.044   -818.74746   -19162.032     16.10916 
 2455500    1580.5299    -820.9271    3366.9625    16.083137 
 2456000    1748.2923   -822.66806   -1000.4986     16.09297 
 2456500    1724.4943   -823.22326    3640.2642    16.148362 
 2457000    1700.0722   -820.15127    1943.9557    16.083154 
 2457500    1824.9945   -827.04753   -4217.7189    16.084877 
 2458000    1687.0891   -822.33115     33308.45    16.005063 
 2458500    1689.5978   -822.76653   -7837.9659    16.044575 
 2459000    1717.9342    -824.6619   -11539.632    16.123655 
 2459500    1606.7027   -820.84437    15268.802    16.048751 
 2460000    1537.2263   -825.47364   -315.07087    16.036237 
 2460500    1579.5236   -821.06176    -7855.619    16.147314 
 2461000      1957.66   -827.94084    5004.1579    16.137736 
 2461500    1599.8464   -821.94361    13569.283    16.122389 
 2462000    1782.2703   -819.50504    -109.8629    16.082052 
 2462500    1655.3772   -820.15797   -6942.9751      16.0899 
 2463000    1651.4384   -825.97854   -6889.5976    16.135467 
 2463500    1595.7886    -821.6675    -759.2843    16.120741 
 2464000    1629.6752   -821.90369    3305.0587    16.081809 
 2464500    1494.4118   -830.36698    20996.051    16.047146 
 2465000     1631.956   -826.08436    2110.2507    16.105722 
 2465500    1700.3425   -830.45013   -2323.7901    16.149174 
 2466000    1755.1285   -825.48288     13477.99    16.145337 
 2466500     1706.696   -834.71059    37544.752    16.059021 
 2467000    1858.2118   -829.17216    8271.4714    16.189919 
 2467500    1582.3303   -833.06153   -4600.2669    16.114057 
 2468000    1590.5994   -834.27433     -20748.1    16.213514 
 2468500    1936.3076   -826.94638    11004.957    16.134975 
 2469000    1847.7165    -825.2134    4728.9605    16.130061 
 2469500    1718.0029   -829.98366    5882.8084    16.078552 
 2470000    1619.8886   -823.97546     8568.813    16.045805 
 2470500    1824.6514   -831.38585   -3081.7455    16.141153 
 2471000    1711.9295   -827.42089    17492.631    16.059055 
 2471500    1574.3139   -829.21626   -5617.4539    16.181344 
 2472000    1754.2451   -830.65179   -10388.894    16.252001 
 2472500    1875.2206   -829.85349   -3284.4772    16.212166 
 2473000    1655.2214   -829.05252    22777.626     16.07422 
 2473500    1841.2288   -829.06604    11674.778    16.137324 
 2474000    1695.7179   -830.89225    7530.7188    16.193195 
 2474500    1786.3313   -830.73692    19618.847    16.115028 
 2475000    1652.5103   -827.93377   -16749.119    16.210832 
 2475500    1775.3891   -826.64993    3543.9834    16.118783 
 2476000     1680.618   -834.06116   -2753.2415    16.116241 
 2476500    1704.4861   -825.46505   -6709.3893    16.243958 
 2477000    1640.0637   -830.82169    1330.1396    16.146945 
 2477500    1752.4029   -825.43421   -2894.4671    16.138635 
 2478000    1799.8127    -835.0224   -3951.8287    16.196257 
 2478500    1565.3336   -830.60444   -9253.1717     16.20815 
 2479000    1532.5176   -839.73977   -13971.573    16.217708 
 2479500    1457.9786    -831.9169   -3438.0906     16.21926 
 2480000    1637.0575   -840.09264   -1861.8345    16.197704 
 2480500    1660.6472   -839.52595    7460.4052    16.165016 
 2481000     1710.448    -837.6507   -8912.9749    16.245763 
 2481500    1507.5679   -835.00672   -15483.619    16.298191 
 2482000    1794.4819   -836.20507    6135.2237    16.194171 
 2482500    1545.9604   -841.78545    -171.5217    16.253189 
 2483000    1577.8287    -841.8165    8524.2885        16.16 
 2483500    1546.6479   -846.40098    262.21225    16.202046 
 2484000     1739.236    -840.6297    10816.046    16.171991 
 2484500    1615.5389   -840.81935    12963.639    16.193951 
 2485000    1538.7846   -838.17414   -8345.5181      16.2395 
 2485500    1537.4052   -839.46376   -12697.868    16.303252 
 2486000    1691.2342   -838.70761  -0.48964711    16.213215 
 2486500    1709.9699   -841.47959    1226.1932    16.191896 
 2487000    1512.9021   -842.18026    10091.977    16.145412 
 2487500    1661.0429    -844.0413   -2002.0357    16.205691 
 2488000    1861.1996   -841.42071    1147.6656    16.226421 
 2488500    1608.0987   -842.42724    -7529.157    16.275355 
 2489000    1559.4735   -839.37971   -16863.291    16.250083 
 2489500     1721.703   -839.20304   -2846.4122     16.27723 
 2490000    1729.2849   -843.93492   -3532.7303    16.260939 
 2490500    1606.7062   -848.42629   -13177.924    16.346726 
 2491000    1693.4643   -845.14783   -1533.4857    16.281012 
 2491500    1741.7565   -851.40911    11460.902     16.25546 
 2492000    1726.7097   -850.24877   -4340.6176    16.263859 
 2492500    1528.5445   -849.44762   -3910.5948    16.248776 
 2493000    1765.4157   -841.67916    9717.5449    16.211711 
 2493500    1663.5278   -853.66728   -5937.6773    16.257904 
 2494000    1663.7504   -842.81771    9288.3895    16.210964 
 2494500    1705.4603   -843.65739   -7842.9384     16.29693 
 2495000    1657.8675   -845.12321   -4337.1818    16.289585 
 2495500    1678.6546   -846.27541   -5948.1944    16.311894 
 2496000     1779.818    -850.7554    2695.4677    16.306375 
 2496500    1595.5506   -853.72063    5903.7312     16.32348 
 2497000    1688.6777   -850.52039    4323.7214    16.320526 
 2497500    1530.5518    -854.9379   -1224.4075    16.308217 
 2498000    1726.1266   -854.41601   -7853.0981    16.329518 
 2498500    1672.3506   -856.08089   -6152.3146    16.305335 
 2499000    1760.5035   -856.13481    1605.9401    16.337506 
 2499500     1539.607   -855.87547   -4322.2109    16.327801 
 2500000    1820.7614   -854.77612    6609.9242     16.26826 
Loop time of 1629.66 on 4 procs for 2500000 steps with 216 atoms

Performance: 265.085 ns/day, 0.091 hours/ns, 1534.059 timesteps/s
98.8% CPU use with 4 MPI tasks x no OpenMP threads

MPI task timing breakdown:
Section |  min time  |  avg time  |  max time  |%varavg| %total
---------------------------------------------------------------
Pair    | 363.44     | 370.55     | 378.11     |  28.1 | 22.74
Bond    | 0.094042   | 0.10237    | 0.10777    |   1.6 |  0.01
Neigh   | 7.3662     | 7.4102     | 7.5003     |   1.9 |  0.45
Comm    | 67.734     | 75.275     | 82.372     |  62.3 |  4.62
Output  | 1.5191     | 1.5255     | 1.5425     |   0.8 |  0.09
Modify  | 1170.7     | 1171.1     | 1171.3     |   0.7 | 71.86
Other   |            | 3.745      |            |       |  0.23

Nlocal:    54 ave 57 max 52 min
Histogram: 1 0 1 0 1 0 0 0 0 1
Nghost:    472 ave 478 max 466 min
Histogram: 1 0 0 0 0 2 0 0 0 1
Neighs:    0 ave 0 max 0 min
Histogram: 4 0 0 0 0 0 0 0 0 0
FullNghs:  2002.5 ave 2187 max 1895 min
Histogram: 2 0 0 1 0 0 0 0 0 1

Total # of neighbors = 8010
Ave neighs/atom = 37.0833
Ave special neighs/atom = 0
Neighbor list builds = 86649
Dangerous builds = 0

unfix		4
unfix		3
unfix		2
unfix		1

write_data	data.final.${p_id}
ERROR on proc 1: Substitution for illegal variable p_id (../input.cpp:553)
Last command: write_data	data.final.${p_id}
ERROR on proc 2: Substitution for illegal variable p_id (../input.cpp:553)
Last command: write_data	data.final.${p_id}
ERROR on proc 3: Substitution for illegal variable p_id (../input.cpp:553)
Last command: write_data	data.final.${p_id}
ERROR on proc 0: Substitution for illegal variable p_id (../input.cpp:553)
Last command: write_data	data.final.${p_id}
--------------------------------------------------------------------------
MPI_ABORT was invoked on rank 3 in communicator MPI_COMM_WORLD
with errorcode 1.

NOTE: invoking MPI_ABORT causes Open MPI to kill all MPI processes.
You may or may not see output from other processes, depending on
exactly when Open MPI kills them.
--------------------------------------------------------------------------
