LAMMPS data file via write_data, version 15 Apr 2020, timestep = 100000

216 atoms
1 atom types

-6.3476703964492370e-02 1.6355576703965173e+01 xlo xhi
-6.3476703964492370e-02 1.6355576703965173e+01 ylo yhi
-6.3476703964492370e-02 1.6355576703965173e+01 zlo zhi

Masses

1 28.0855

Atoms # full

5 0 1 0.0000000000000000e+00 1.4232741649974237e+00 1.1408994457950343e+00 1.1534886569213083e+00 0 0 0
2 0 1 0.0000000000000000e+00 -3.6979086705933639e-02 2.3253268224843233e+00 2.4455420755560100e+00 0 0 0
6 0 1 0.0000000000000000e+00 1.2273909044009719e+00 3.7790237529870110e+00 3.8010233816002961e+00 0 0 0
10 0 1 0.0000000000000000e+00 5.3498714395355709e+00 2.7656706863401865e+00 2.6458107033197229e+00 0 0 0
7 0 1 0.0000000000000000e+00 4.1150878055008917e+00 1.0877160891337578e+00 3.8586991201419472e+00 0 0 0
8 0 1 0.0000000000000000e+00 3.8708014816641185e+00 3.8885366908690844e+00 1.1589623954649857e+00 0 0 0
9 0 1 0.0000000000000000e+00 5.3566697446661378e+00 7.4495590135849679e-02 4.5433692699913377e-03 0 0 0
13 0 1 0.0000000000000000e+00 6.7757564188296584e+00 1.5391021838718029e+00 1.2857271672103776e+00 0 0 0
15 0 1 0.0000000000000000e+00 9.5300113558076252e+00 1.4563249198928694e+00 3.9769923726053649e+00 0 0 0
18 0 1 0.0000000000000000e+00 1.0606961897155852e+01 3.0536068875098854e+00 2.5204295015136173e+00 0 0 0
21 0 1 0.0000000000000000e+00 1.1851022605848467e+01 1.4535343095723272e+00 1.3336125989335765e+00 0 0 0
23 0 1 0.0000000000000000e+00 1.4976230446890018e+01 1.2773920163387429e+00 3.8671331900834796e+00 0 0 0
20 0 1 0.0000000000000000e+00 1.3351029588231157e+01 2.7899367999527520e+00 2.5945020945580760e-01 0 0 0
26 0 1 0.0000000000000000e+00 2.8151932761780918e+00 5.3167164199986923e+00 2.5645648720046226e+00 0 0 0
27 0 1 0.0000000000000000e+00 1.1974170563421578e+00 6.6861759061969162e+00 1.4320773871566161e+00 0 0 0
110 0 1 0.0000000000000000e+00 2.4425597872854747e+00 8.0586870722026127e+00 4.3426165278959608e-02 0 0 0
28 0 1 0.0000000000000000e+00 4.1918495541915783e+00 6.6384067342346516e+00 3.9677601912783351e+00 0 0 0
113 0 1 0.0000000000000000e+00 5.4955391013516586e+00 8.1017102367737284e+00 2.6023170829475131e+00 0 0 0
16 0 1 0.0000000000000000e+00 9.1955842936138268e+00 4.2920815741680780e+00 1.1114042635165997e+00 0 0 0
31 0 1 0.0000000000000000e+00 6.7600650054289400e+00 6.9777792009045774e+00 1.1698941270314509e+00 0 0 0
30 0 1 0.0000000000000000e+00 7.9533634706030423e+00 5.4885425011093885e+00 2.6557928598467422e+00 0 0 0
32 0 1 0.0000000000000000e+00 9.5359721475737764e+00 6.8178732481857098e+00 3.8999452997987567e+00 0 0 0
33 0 1 0.0000000000000000e+00 1.0938474915327118e+01 5.5730726070835042e+00 1.8362809040132011e-01 0 0 0
35 0 1 0.0000000000000000e+00 1.2424155926921589e+01 6.6119917241546649e+00 1.6439404970879681e+00 0 0 0
117 0 1 0.0000000000000000e+00 1.1225032984331172e+01 7.8483717906738049e+00 2.7819441886131400e+00 0 0 0
24 0 1 0.0000000000000000e+00 1.4877600932819949e+01 4.0768598389719966e+00 1.3322567395396889e+00 0 0 0
34 0 1 0.0000000000000000e+00 1.3936361466321610e+01 5.2864725065061693e+00 2.9391180810528068e+00 0 0 0
25 0 1 0.0000000000000000e+00 1.6140348219448654e+01 5.5385732238293093e+00 2.9747185052987021e-03 -1 0 0
118 0 1 0.0000000000000000e+00 1.3499563604998235e+01 8.0766887106697993e+00 2.6048380919010045e-01 0 0 0
109 0 1 0.0000000000000000e+00 1.6286021563697584e+01 8.1324592385244845e+00 2.9058932527450598e+00 -1 0 0
38 0 1 0.0000000000000000e+00 2.8147838475903102e+00 2.7820876638341709e+00 5.0799793287570267e+00 0 0 0
39 0 1 0.0000000000000000e+00 1.2092022484483291e+00 1.3841171616470571e+00 6.4671219994098745e+00 0 0 0
56 0 1 0.0000000000000000e+00 2.5019377505304448e+00 1.3475510964268977e-01 8.1421370839107503e+00 0 0 0
40 0 1 0.0000000000000000e+00 4.0366643307462562e+00 3.9916668271676370e+00 6.8318057699132400e+00 0 0 0
59 0 1 0.0000000000000000e+00 5.3931559202977333e+00 2.2534456553947146e+00 7.8883770398432649e+00 0 0 0
14 0 1 0.0000000000000000e+00 6.6156178059764468e+00 3.9674863520977861e+00 4.0479496819902145e+00 0 0 0
43 0 1 0.0000000000000000e+00 6.8801661817187547e+00 1.0294516391847119e+00 6.7514241821207612e+00 0 0 0
42 0 1 0.0000000000000000e+00 8.3258717412602472e+00 2.8346011444548758e+00 5.4251137320090468e+00 0 0 0
44 0 1 0.0000000000000000e+00 9.8612699745749541e+00 3.8736532003173183e+00 6.7641879112759433e+00 0 0 0
47 0 1 0.0000000000000000e+00 1.2516090251943758e+01 1.0748338171247318e+00 6.6014432790268014e+00 0 0 0
45 0 1 0.0000000000000000e+00 1.0851822166603124e+01 2.9690132100202698e-02 5.6141148104402117e+00 0 0 0
63 0 1 0.0000000000000000e+00 1.0993582487096820e+01 2.4685455838977592e+00 8.0999718671231431e+00 0 0 0
55 0 1 0.0000000000000000e+00 1.6322298962878715e+01 2.6441020738034222e+00 7.9781432946809394e+00 -1 0 0
46 0 1 0.0000000000000000e+00 1.3657015024108858e+01 2.6299276025260561e+00 5.2666557495587583e+00 0 0 0
37 0 1 0.0000000000000000e+00 1.6185276421599319e+01 1.3729269225018148e-01 5.2826690787825781e+00 -1 0 0
49 0 1 0.0000000000000000e+00 2.3115540145523872e-01 5.4369049581602678e+00 5.4286782084562804e+00 0 0 0
50 0 1 0.0000000000000000e+00 1.4914092260450103e+00 7.0688148686317849e+00 6.6803553832386244e+00 0 0 0
67 0 1 0.0000000000000000e+00 2.8057026261251932e+00 5.5656861914778357e+00 8.0194866151095017e+00 0 0 0
51 0 1 0.0000000000000000e+00 5.4719378524795381e+00 5.2751194911581036e+00 5.3746059570163744e+00 0 0 0
52 0 1 0.0000000000000000e+00 6.6482494514074997e+00 6.7526862132801808e+00 6.9237856005346679e+00 0 0 0
147 0 1 0.0000000000000000e+00 8.2084841653889296e+00 7.9978517963635847e+00 5.4214421241589266e+00 0 0 0
69 0 1 0.0000000000000000e+00 8.2901131511295922e+00 5.1388355014652918e+00 8.1066644127563734e+00 0 0 0
53 0 1 0.0000000000000000e+00 1.0800146686858772e+01 5.4073132804684541e+00 5.2234477105204382e+00 0 0 0
22 0 1 0.0000000000000000e+00 1.2217998106077616e+01 4.1772041954114751e+00 4.0475953398084528e+00 0 0 0
54 0 1 0.0000000000000000e+00 1.1973717336806567e+01 6.6887958009942574e+00 6.7377754334286326e+00 0 0 0
149 0 1 0.0000000000000000e+00 1.3470279092086885e+01 8.0348005377318383e+00 5.5930002694506689e+00 0 0 0
48 0 1 0.0000000000000000e+00 1.5004407408204941e+01 4.1598673671393671e+00 6.9051388605392034e+00 0 0 0
36 0 1 0.0000000000000000e+00 1.5072316125046525e+01 6.8040390136172180e+00 4.2176490686181900e+00 0 0 0
71 0 1 0.0000000000000000e+00 1.3633569235336914e+01 5.5535486061709358e+00 8.1386761985205940e+00 0 0 0
76 0 1 0.0000000000000000e+00 2.7950878842541518e+00 2.8887267695210506e+00 1.0577135004064376e+01 0 0 0
77 0 1 0.0000000000000000e+00 1.4425060615318408e+00 1.3501451044396797e+00 1.2014539796214409e+01 0 0 0
58 0 1 0.0000000000000000e+00 4.0031178070834157e+00 1.2535819280161231e+00 9.5949156022214286e+00 0 0 0
84 0 1 0.0000000000000000e+00 8.3429687812311712e+00 2.7387870307496964e+00 1.0714912543150586e+01 0 0 0
62 0 1 0.0000000000000000e+00 9.6683604421753220e+00 1.1336356191974675e+00 9.4691321508824053e+00 0 0 0
61 0 1 0.0000000000000000e+00 6.6205821499913995e+00 3.6674944266542604e+00 9.2638336166656501e+00 0 0 0
85 0 1 0.0000000000000000e+00 6.8750005892440162e+00 1.5537849854692249e+00 1.2222453348338570e+01 0 0 0
93 0 1 0.0000000000000000e+00 1.2429071340437856e+01 1.3860352107345160e+00 1.2181908949204505e+01 0 0 0
89 0 1 0.0000000000000000e+00 1.1182079299321567e+01 9.8439580286953543e-02 1.1010879586907620e+01 0 0 0
66 0 1 0.0000000000000000e+00 1.4986083795427932e+01 1.3947547367012822e+00 9.5062549845351096e+00 0 0 0
92 0 1 0.0000000000000000e+00 1.3618895230447848e+01 2.7787939763896738e+00 1.0962000855674152e+01 0 0 0
57 0 1 0.0000000000000000e+00 1.2624989552775485e+00 4.2006644009874927e+00 9.2603171117023813e+00 0 0 0
97 0 1 0.0000000000000000e+00 -2.6016868848399374e-02 5.2512628265442025e+00 1.0545126391608095e+01 0 0 0
99 0 1 0.0000000000000000e+00 1.2189954504088094e+00 6.8751155013566372e+00 1.2196814055276644e+01 0 0 0
68 0 1 0.0000000000000000e+00 4.1187712639551011e+00 6.6216732042990172e+00 9.4087510248230135e+00 0 0 0
101 0 1 0.0000000000000000e+00 5.4120830970488836e+00 5.5080908910707702e+00 1.0934969715365886e+01 0 0 0
80 0 1 0.0000000000000000e+00 3.8647505150451993e+00 4.4226835370801121e+00 1.2244953826050478e+01 0 0 0
70 0 1 0.0000000000000000e+00 9.3196290771144046e+00 6.6774911756115589e+00 9.4651907753085016e+00 0 0 0
167 0 1 0.0000000000000000e+00 1.0770468972619167e+01 7.9905456350467929e+00 8.2405670032678842e+00 0 0 0
65 0 1 0.0000000000000000e+00 1.2113646364935848e+01 4.0839610128728001e+00 9.3937911116292305e+00 0 0 0
105 0 1 0.0000000000000000e+00 1.0835465584294356e+01 5.0936066157050393e+00 1.1152015183948631e+01 0 0 0
190 0 1 0.0000000000000000e+00 1.3316445815989447e+01 8.0438187286136777e+00 1.0885985708834838e+01 0 0 0
72 0 1 0.0000000000000000e+00 1.5138365554954122e+01 7.0041927868262919e+00 9.7455061563748622e+00 0 0 0
4 0 1 0.0000000000000000e+00 2.4822220229927474e+00 2.5160339259746936e+00 1.6158727556272577e+01 0 0 -1
79 0 1 0.0000000000000000e+00 3.6864849583555666e+00 1.0500146906391803e+00 1.5148095712330161e+01 0 0 0
82 0 1 0.0000000000000000e+00 4.9102077080161601e+00 2.6428167034773007e+00 1.3670039644241953e+01 0 0 0
83 0 1 0.0000000000000000e+00 8.2535760600199310e+00 3.1387451953379447e-01 1.3511559780818644e+01 0 0 0
87 0 1 0.0000000000000000e+00 9.7182691637523977e+00 1.3830873058537843e+00 1.4946997185899514e+01 0 0 0
86 0 1 0.0000000000000000e+00 6.6012064980244167e+00 3.8933902438752579e+00 1.4939738660913928e+01 0 0 0
12 0 1 0.0000000000000000e+00 8.2265444411871389e+00 2.7287332526096857e+00 1.6267638639763476e+01 0 0 -1
17 0 1 0.0000000000000000e+00 1.0963120394446481e+01 -6.3452533823692647e-02 1.6310613500105244e+01 0 0 -1
94 0 1 0.0000000000000000e+00 1.1938137978060835e+01 3.9972719513524653e+00 1.5157302242504278e+01 0 0 0
90 0 1 0.0000000000000000e+00 1.1021488696720834e+01 2.5792368227409339e+00 1.3606561084011412e+01 0 0 0
91 0 1 0.0000000000000000e+00 1.3799659293339037e+01 5.1463846174457130e-03 1.3559831546440533e+01 0 0 0
74 0 1 0.0000000000000000e+00 1.6284631579348407e+01 2.7460009625541884e+00 1.3718949096364133e+01 -1 0 0
95 0 1 0.0000000000000000e+00 1.4504017556324868e+01 1.5112959626062294e+00 1.5021813689262858e+01 0 0 0
1 0 1 0.0000000000000000e+00 1.6135225069242690e+01 3.5037743917268854e-01 1.6290938080192689e+01 -1 0 -1
78 0 1 0.0000000000000000e+00 1.0098366762539273e+00 4.2208182551530609e+00 1.5107394354895094e+01 0 0 0
98 0 1 0.0000000000000000e+00 2.2265216720346745e+00 5.4696165065372799e+00 1.3625309852036544e+01 0 0 0
100 0 1 0.0000000000000000e+00 3.7288361476903145e+00 6.8693015558214885e+00 1.5048448642796656e+01 0 0 0
29 0 1 0.0000000000000000e+00 5.2327251170904896e+00 5.5084994377208885e+00 1.6326069622259297e+01 0 0 -1
102 0 1 0.0000000000000000e+00 8.0417474246532876e+00 5.4370446299923154e+00 1.3910353786179542e+01 0 0 0
103 0 1 0.0000000000000000e+00 6.7172737993734515e+00 7.0133428833621565e+00 1.2264860654332004e+01 0 0 0
88 0 1 0.0000000000000000e+00 9.2106970468391065e+00 4.1341775398093850e+00 1.2327515122309769e+01 0 0 0
104 0 1 0.0000000000000000e+00 9.6233292581434196e+00 6.8540767876694835e+00 1.5098985504792475e+01 0 0 0
107 0 1 0.0000000000000000e+00 1.2050502144252132e+01 6.5777990573301013e+00 1.2467666453944389e+01 0 0 0
108 0 1 0.0000000000000000e+00 1.4675089428981133e+01 6.7829302863029257e+00 1.5152784326347129e+01 0 0 0
106 0 1 0.0000000000000000e+00 1.3334267077505935e+01 5.3573352534933907e+00 1.3825686932106915e+01 0 0 0
96 0 1 0.0000000000000000e+00 1.5101704327395050e+01 4.1275262879573837e+00 1.2298863749927861e+01 0 0 0
123 0 1 0.0000000000000000e+00 2.5747368368592487e+00 1.1163923018261794e+01 2.6850553034892819e+00 0 0 0
111 0 1 0.0000000000000000e+00 1.4307805850499018e+00 9.5330065350939197e+00 3.8475655514325333e+00 0 0 0
112 0 1 0.0000000000000000e+00 3.8817325180445610e+00 9.6093773889314100e+00 1.3530296211287651e+00 0 0 0
131 0 1 0.0000000000000000e+00 7.8102517558850648e+00 1.0768795464813936e+01 2.6708727864795128e+00 0 0 0
135 0 1 0.0000000000000000e+00 9.4392404472243090e+00 1.2015726159496873e+01 3.8067688744649506e+00 0 0 0
133 0 1 0.0000000000000000e+00 6.8455691487546737e+00 1.1860143752943861e+01 9.5632321933958608e-01 0 0 0
114 0 1 0.0000000000000000e+00 8.1780863813806306e+00 8.3285865579072418e+00 7.4271240804105937e-02 0 0 0
116 0 1 0.0000000000000000e+00 9.9080704942675588e+00 9.8093575911792019e+00 1.6307216567919369e+00 0 0 0
137 0 1 0.0000000000000000e+00 1.0868766024242298e+01 1.1039719049623601e+01 -2.1938967385948586e-02 0 0 0
121 0 1 0.0000000000000000e+00 1.6347448972602372e+01 1.0608920637386387e+01 6.9145950400386333e-02 -1 0 0
120 0 1 0.0000000000000000e+00 1.5043142687317484e+01 9.2100269380095838e+00 1.3770982151506423e+00 0 0 0
139 0 1 0.0000000000000000e+00 1.3666030428393281e+01 1.0756719172494066e+01 2.6580848506997743e+00 0 0 0
125 0 1 0.0000000000000000e+00 1.2527007185139742e+00 1.2451644687750933e+01 1.1952344052301114e+00 0 0 0
126 0 1 0.0000000000000000e+00 1.3725699056285994e+00 1.5251979521179239e+01 3.8836957532332090e+00 0 0 0
122 0 1 0.0000000000000000e+00 2.8919843915889518e-02 1.3828976600746531e+01 2.6461899135706455e+00 0 0 0
3 0 1 0.0000000000000000e+00 2.6827095135504742e+00 1.6341631961317372e+01 2.3418447424495898e+00 0 -1 0
128 0 1 0.0000000000000000e+00 4.0358286767240390e+00 1.4745988405476240e+01 1.0920844384348638e+00 0 0 0
130 0 1 0.0000000000000000e+00 5.5210651962230601e+00 1.3319474914936924e+01 2.4228039708481619e+00 0 0 0
127 0 1 0.0000000000000000e+00 4.2334266940484708e+00 1.2341151042900576e+01 3.8637978505525417e+00 0 0 0
134 0 1 0.0000000000000000e+00 7.0773504017064814e+00 1.4616911455990353e+01 3.7236254692103317e+00 0 0 0
136 0 1 0.0000000000000000e+00 9.7678187781491097e+00 1.4788314941837331e+01 1.1902005122341679e+00 0 0 0
132 0 1 0.0000000000000000e+00 7.8705201757394549e+00 1.3758058064397858e+01 8.6154828462885705e-02 0 0 0
11 0 1 0.0000000000000000e+00 8.0147332160325284e+00 1.6165825998339141e+01 2.4046112313183077e+00 0 -1 0
141 0 1 0.0000000000000000e+00 1.2443785698769435e+01 1.2525996382809589e+01 1.4464234759712604e+00 0 0 0
138 0 1 0.0000000000000000e+00 1.0942503726297520e+01 1.3484766046525586e+01 2.8294637281268789e+00 0 0 0
143 0 1 0.0000000000000000e+00 1.5004353223980591e+01 1.2401391096116292e+01 3.9796982189549306e+00 0 0 0
19 0 1 0.0000000000000000e+00 1.3481343471206166e+01 1.6296252525004213e+01 2.8102361267683160e+00 0 -1 0
144 0 1 0.0000000000000000e+00 1.5165129950210869e+01 1.5220148076778857e+01 1.2999679445373453e+00 0 0 0
163 0 1 0.0000000000000000e+00 1.7137489485409108e-02 8.2795767595676395e+00 8.0422377480561007e+00 0 0 0
145 0 1 0.0000000000000000e+00 2.9854234445932968e+00 8.1551450492598239e+00 5.1965250289825269e+00 0 0 0
151 0 1 0.0000000000000000e+00 1.9737349732677942e-01 1.0939538956633315e+01 5.3666749576458761e+00 0 0 0
146 0 1 0.0000000000000000e+00 4.1044010957899459e+00 9.4155637108879198e+00 6.7920993164414103e+00 0 0 0
155 0 1 0.0000000000000000e+00 5.2428473256407067e+00 1.0808897139898901e+01 5.3055872401083448e+00 0 0 0
115 0 1 0.0000000000000000e+00 6.6746067451562219e+00 9.3891869828994921e+00 4.3077249456192872e+00 0 0 0
148 0 1 0.0000000000000000e+00 9.6470332474007936e+00 9.3630644871864810e+00 6.7115190555103110e+00 0 0 0
157 0 1 0.0000000000000000e+00 6.6496482650399269e+00 1.2150188371168742e+01 6.6986435730673062e+00 0 0 0
119 0 1 0.0000000000000000e+00 1.2188569687801829e+01 9.5752487200740486e+00 4.1156692654370852e+00 0 0 0
161 0 1 0.0000000000000000e+00 1.2211968333194587e+01 1.1893646510455111e+01 6.8150405146067889e+00 0 0 0
159 0 1 0.0000000000000000e+00 1.0789761799781159e+01 1.0677454862679761e+01 5.4540724076922702e+00 0 0 0
150 0 1 0.0000000000000000e+00 1.5085270054132367e+01 9.5935700854090697e+00 6.6191617239040363e+00 0 0 0
153 0 1 0.0000000000000000e+00 1.4696740819939744e+00 1.2308909955165646e+01 6.8022765454690335e+00 0 0 0
152 0 1 0.0000000000000000e+00 2.7849311915158852e+00 1.3841238149295963e+01 5.2624129176344479e+00 0 0 0
154 0 1 0.0000000000000000e+00 3.9316459953323322e+00 1.5272858487721289e+01 6.7708137297440407e+00 0 0 0
41 0 1 0.0000000000000000e+00 5.4709417198007753e+00 1.6204860970381315e+01 5.3446435812122299e+00 0 -1 0
173 0 1 0.0000000000000000e+00 5.2674428441740986e+00 1.3698482158849188e+01 8.0662634704466409e+00 0 0 0
158 0 1 0.0000000000000000e+00 9.6253807366118647e+00 1.5006278970413625e+01 7.1804182703488095e+00 0 0 0
156 0 1 0.0000000000000000e+00 8.3006582670717162e+00 1.3434316255360436e+01 5.4344497323781651e+00 0 0 0
142 0 1 0.0000000000000000e+00 1.2120656484014898e+01 1.4912388077626449e+01 4.4489455062912953e+00 0 0 0
64 0 1 0.0000000000000000e+00 1.3897473358454258e+01 1.6236672449666237e+01 8.0491813055325121e+00 0 -1 0
162 0 1 0.0000000000000000e+00 1.5121375147978586e+01 1.4888235196975799e+01 6.6864682853567636e+00 0 0 0
160 0 1 0.0000000000000000e+00 1.3671149715725981e+01 1.3506666877176071e+01 5.5769283780914103e+00 0 0 0
164 0 1 0.0000000000000000e+00 1.2611549896961618e+00 9.5301485131336783e+00 9.5855694259654687e+00 0 0 0
197 0 1 0.0000000000000000e+00 1.2335611728858553e+00 1.2054995133873945e+01 1.2165826241050425e+01 0 0 0
182 0 1 0.0000000000000000e+00 2.6666125775437743e+00 8.3211261825307616e+00 1.0945712838742303e+01 0 0 0
193 0 1 0.0000000000000000e+00 -4.7590844790647679e-02 1.0778450855168467e+01 1.0918270453105201e+01 0 0 0
170 0 1 0.0000000000000000e+00 2.7485137250025549e+00 1.0753142721272388e+01 8.2651610439007204e+00 0 0 0
201 0 1 0.0000000000000000e+00 5.7694278246756836e+00 1.0989423549464794e+01 1.1130428009862383e+01 0 0 0
184 0 1 0.0000000000000000e+00 4.2412512772473754e+00 9.5023257743195568e+00 1.2161965673744414e+01 0 0 0
172 0 1 0.0000000000000000e+00 4.1785643758704030e+00 1.2155438537594748e+01 9.4848182312804692e+00 0 0 0
165 0 1 0.0000000000000000e+00 5.5575665202411946e+00 8.2444436412839437e+00 8.2439445000556137e+00 0 0 0
166 0 1 0.0000000000000000e+00 7.0110765553548635e+00 9.7538181717478576e+00 9.6413288019982044e+00 0 0 0
186 0 1 0.0000000000000000e+00 8.2339046814835566e+00 8.2004707588878762e+00 1.0893570400704151e+01 0 0 0
174 0 1 0.0000000000000000e+00 8.3363799689301388e+00 1.1041508509515570e+01 8.2044880645362444e+00 0 0 0
168 0 1 0.0000000000000000e+00 1.2097494207851884e+01 9.4340618857553800e+00 9.5229830227692638e+00 0 0 0
209 0 1 0.0000000000000000e+00 1.0977240075709426e+01 1.0792849820038578e+01 1.1045178905294675e+01 0 0 0
180 0 1 0.0000000000000000e+00 1.4804110612355755e+01 1.2080656514909323e+01 9.5001396346399538e+00 0 0 0
192 0 1 0.0000000000000000e+00 1.4653569702889849e+01 9.5610960020576616e+00 1.2008443861752598e+01 0 0 0
178 0 1 0.0000000000000000e+00 1.3663254772406820e+01 1.0563639624280471e+01 8.2269744181298865e+00 0 0 0
73 0 1 0.0000000000000000e+00 4.2917611609621723e-02 1.6342687725968290e+01 1.0687016972281782e+01 0 -1 0
171 0 1 0.0000000000000000e+00 1.1809383119904189e+00 1.4988007498720984e+01 9.4838361680369836e+00 0 0 0
196 0 1 0.0000000000000000e+00 2.6877765961824838e+00 1.3445497766308605e+01 1.0611989074737123e+01 0 0 0
169 0 1 0.0000000000000000e+00 -7.0587719628036893e-03 1.3447899071281503e+01 8.2021648556909170e+00 0 0 0
200 0 1 0.0000000000000000e+00 4.2423941580395272e+00 1.4807656141646062e+01 1.2093420393589037e+01 0 0 0
81 0 1 0.0000000000000000e+00 5.6485208722928180e+00 1.6278254111863447e+01 1.0969446475998289e+01 0 -1 0
176 0 1 0.0000000000000000e+00 9.6504806931095306e+00 1.2485569697341582e+01 9.6613426949663097e+00 0 0 0
175 0 1 0.0000000000000000e+00 6.7418107195154038e+00 1.4736963540927791e+01 9.7164680675766490e+00 0 0 0
204 0 1 0.0000000000000000e+00 8.1418062510556624e+00 1.3603821503099029e+01 1.1119202013512831e+01 0 0 0
60 0 1 0.0000000000000000e+00 8.1978531763095646e+00 1.6034452625041698e+01 8.4770441056712844e+00 0 -1 0
179 0 1 0.0000000000000000e+00 1.2567510151795725e+01 1.5116695328468039e+01 9.4769438460926860e+00 0 0 0
177 0 1 0.0000000000000000e+00 1.1261227570171528e+01 1.3573051657573385e+01 8.2814812287193398e+00 0 0 0
212 0 1 0.0000000000000000e+00 1.3781874926615394e+01 1.3653160029834734e+01 1.0899183442290989e+01 0 0 0
183 0 1 0.0000000000000000e+00 1.2355537137542139e+00 9.4404576831656541e+00 1.4964191728841804e+01 0 0 0
195 0 1 0.0000000000000000e+00 2.6984417053682619e+00 1.0757410435189117e+01 1.3636609399954454e+01 0 0 0
129 0 1 0.0000000000000000e+00 4.9429924240203871e+00 1.0918803261449554e+01 1.6235091440439273e+01 0 0 -1
185 0 1 0.0000000000000000e+00 5.3275025027504999e+00 8.1713182525406083e+00 1.3853730935826725e+01 0 0 0
187 0 1 0.0000000000000000e+00 6.8531052975441371e+00 9.8386448406518152e+00 1.5073486691085757e+01 0 0 0
188 0 1 0.0000000000000000e+00 9.5166883850715536e+00 9.6235622045800184e+00 1.2550928125317125e+01 0 0 0
203 0 1 0.0000000000000000e+00 8.2330575923672455e+00 1.1079085931938016e+01 1.3717032528509963e+01 0 0 0
191 0 1 0.0000000000000000e+00 1.2218828800090368e+01 9.3388159572762621e+00 1.5124582605411451e+01 0 0 0
189 0 1 0.0000000000000000e+00 1.0969262892355163e+01 8.2014820832190072e+00 1.3818165679646880e+01 0 0 0
211 0 1 0.0000000000000000e+00 1.3456101111727484e+01 1.0734113080961235e+01 1.3566707452975791e+01 0 0 0
181 0 1 0.0000000000000000e+00 1.6176910581668139e+01 8.2155161172994813e+00 1.3498151543990099e+01 -1 0 0
194 0 1 0.0000000000000000e+00 2.3211418272948935e-02 1.3431141576906699e+01 1.3690558296489920e+01 0 0 0
75 0 1 0.0000000000000000e+00 2.3968282259225302e+00 1.6048842743580568e+01 1.3213637436293180e+01 0 -1 0
198 0 1 0.0000000000000000e+00 1.2335731311788727e+00 1.5109594240952761e+01 1.4907558262768553e+01 0 0 0
124 0 1 0.0000000000000000e+00 2.6783652304364738e+00 1.3699928914882477e+01 1.6336156460245341e+01 0 0 -1
199 0 1 0.0000000000000000e+00 3.7220336228910069e+00 1.2375920110254359e+01 1.4899384332493511e+01 0 0 0
202 0 1 0.0000000000000000e+00 5.6249306677574928e+00 1.3857632177661801e+01 1.3715441897351781e+01 0 0 0
207 0 1 0.0000000000000000e+00 9.4026571586758383e+00 1.2478070251804928e+01 1.5120168640461452e+01 0 0 0
208 0 1 0.0000000000000000e+00 9.5050849030863827e+00 1.5188255504644246e+01 1.2252873924701575e+01 0 0 0
206 0 1 0.0000000000000000e+00 6.8014978317238022e+00 1.5115669870128837e+01 1.4950230845544478e+01 0 0 0
205 0 1 0.0000000000000000e+00 7.0324596810955162e+00 1.2311593074762721e+01 1.2388480686746011e+01 0 0 0
213 0 1 0.0000000000000000e+00 1.2272359608268049e+01 1.2270785656242825e+01 1.2403291801987011e+01 0 0 0
210 0 1 0.0000000000000000e+00 1.0804091867978018e+01 1.3762246399876114e+01 1.3813696523275368e+01 0 0 0
214 0 1 0.0000000000000000e+00 1.2412646771896659e+01 1.4887088568098406e+01 1.4898877711077018e+01 0 0 0
216 0 1 0.0000000000000000e+00 1.5188664967972301e+01 1.4967498041107648e+01 1.2317337125855897e+01 0 0 0
215 0 1 0.0000000000000000e+00 1.5091168292513208e+01 1.2270190974350323e+01 1.5220086282155290e+01 0 0 0
140 0 1 0.0000000000000000e+00 1.3858945987755479e+01 1.3912280976263741e+01 1.6343224671108395e+01 0 0 -1

Velocities

5 -1.2839334709539827e+01 -3.7065518157726390e-01 -9.4487092290191566e+00
2 4.0941816590893945e+00 4.0383411375749043e+00 8.0973623620572699e+00
6 -7.4922695052903636e+00 -2.0257732847419141e+00 -6.0198532708828045e+00
10 6.5744284915981348e+00 -1.5215273683141461e+01 -7.3402810364412705e+00
7 -4.2609158826098117e+00 4.1316265822011946e+00 -4.5459349094155979e+00
8 2.1803605921543273e+01 -2.3904499067171621e+00 9.5229482238585081e+00
9 1.6141522675929492e+00 -1.5195428279856987e+01 -1.3875682851093444e+01
13 -4.3550324929490163e+00 5.6559463171193824e+00 5.8081090628996455e+00
15 -1.0705337277687061e+00 -3.8224380968527631e+00 1.8748934230583159e+00
18 -9.9503231294220491e+00 1.1273458239093173e+01 4.6376388847231687e-01
21 2.1463659981963321e+00 7.4581546310718072e-01 2.0326034670797877e+00
23 -1.1550835494149174e+00 -1.1770147558476168e+01 5.6940944258299995e+00
20 -5.6673850380305941e+00 -1.0567187428145504e+01 -1.9971489299948133e+00
26 -5.2588065988060695e+00 7.6615758976142230e+00 -9.8608435837803761e+00
27 3.4904776800066801e+00 2.4190811185536925e+00 8.0957140762035973e+00
110 3.0155127146390086e+00 -2.0739894801068508e+00 1.7268591989666622e+00
28 -4.3660124733646795e+00 -6.3855497841515865e+00 -9.4486907211274680e+00
113 -3.9323387083383028e+00 -1.0989428322150939e+01 -3.0343070489582900e+00
16 8.8642730287190641e-01 8.6393742910749136e+00 5.2413059382482585e-01
31 -1.0588749498233996e+01 9.0565833423860287e+00 -5.4331550650792526e-01
30 -2.2270065048532932e+00 -3.2826601432276199e+00 3.0274176256379013e+00
32 8.4441009910402336e+00 -3.6465303506145510e+00 1.5781067344259005e+00
33 -3.4148935512414700e+00 2.9487716274511309e+00 -9.1866473254501440e+00
35 -8.3618178702154089e-01 -6.4928373134648005e+00 8.3828499743083129e-01
117 -1.9939608259712180e+00 1.0068933948200678e+01 -1.0026505413717294e+01
24 2.3502057706923392e+00 3.7690959214239506e+00 -9.0039093354315680e-01
34 -4.0211969079943710e+00 -3.9855364687664165e+00 -1.1491261451773719e+01
25 -1.3350992391066832e+00 -2.8564302074957642e+00 -5.3027490439343294e-01
118 -1.3318588815649379e+01 1.1369019636746922e+01 -4.9199103138681775e+00
109 3.5550920575853926e+00 -1.6141000711409422e+01 9.3563597710278945e-01
38 -4.9428910292849784e+00 5.6230443306354854e+00 4.1219314693901099e+00
39 1.7697881897349557e+00 -3.5425396784014787e+00 -7.8829411207370201e+00
56 4.1998528677443101e+00 1.3348034611343897e+01 -4.1942855751410599e+00
40 -7.6764489112672001e+00 -5.8955405918818187e+00 1.0481053898546705e+01
59 1.8289875109780487e+00 2.0618596851295828e-01 5.1349068496728700e-01
14 -6.1320803421093188e+00 -1.1053409925522129e+00 5.7964456331156078e-01
43 5.4056141760608138e+00 1.5057584679544807e+01 1.2821516440717540e+01
42 -7.5404209791188794e+00 8.5993309367138089e+00 -1.4898420438104563e+00
44 -1.1430663716766698e+01 -9.7086567621012765e-01 -6.5220188099678181e-02
47 -1.7364833172539755e+00 -4.0142892607518839e+00 3.7341731992509346e+00
45 -1.8549327499993520e+01 -1.1980201853536434e+01 4.2804941162307077e+00
63 1.2471590770808856e+01 -6.7444268352016863e+00 -1.0226599100192500e+01
55 -1.2162724017973828e+01 -4.2554673735333965e+00 9.6027952339294878e+00
46 1.3837526767216515e+01 1.1025411912266194e+00 8.7650877050514016e+00
37 4.5656204639064004e+00 -1.6728715976014412e+00 3.7477034826648825e-01
49 -3.7137561911398143e+00 -4.0053184026346207e+00 -3.2668240354247753e+00
50 4.6396795245608642e+00 -2.8014809409166386e+00 1.7229355072349344e+00
67 -6.1055158279672170e+00 -1.7596249667416890e+00 8.4201158759814210e-01
51 2.5123494894284550e+00 -8.2028486426924285e+00 -1.2497921776235172e+01
52 3.0370831778822288e-01 -9.9687910433541749e+00 -1.3397399310279269e+01
147 -1.7057973920130334e+00 1.0385778598561471e+01 1.0798950971584884e+00
69 1.4908110036988503e-01 3.6640924136991218e+00 8.4564629443517578e+00
53 9.2283820619137273e+00 -1.3780698750719866e+00 1.1691215337096198e+01
22 9.0829722106934696e+00 3.6480673290291601e+00 -1.3738565454465719e+00
54 -8.2299847963145663e+00 -5.1920948351650029e+00 1.6533648728140616e+01
149 -2.0658438455993128e+01 5.6614833204282640e+00 -5.7479365286454414e+00
48 2.5326229303434244e+00 1.7067493470046383e+01 1.1112054992583312e+01
36 -7.1830184974107505e+00 1.6943058712147273e+01 4.1374748354880895e+00
71 -1.2813185804550049e+01 -6.9336239394250683e+00 6.3522171005983301e+00
76 -9.9190429439408998e+00 1.7680201714452890e+00 -1.0242072608767735e+01
77 -3.1000551166507377e+00 -1.0696573736999344e+01 -1.3164737714229291e+01
58 -3.4435993732855446e+00 1.5773215946523291e+00 6.4644865932863171e-01
84 -5.6068219744840517e+00 -3.5309724445745290e+00 1.2111674849264110e+01
62 -1.6488197905636029e-01 2.0016795386691966e+00 -1.3093056152976994e+00
61 4.3256995996044942e+00 -6.5532560435662086e+00 -5.4506378304851708e+00
85 2.5939279299695217e+00 -7.4047782098274064e+00 -8.9327007415567277e+00
93 3.7231652346006578e+00 -1.2855717404866986e+01 3.4552387226654888e+00
89 3.6836532902455956e+00 1.4805522228898084e+01 -7.6301196868047976e+00
66 8.0547642674287605e+00 1.0948904073639278e+01 -1.3648076435171042e+00
92 7.3577662828988810e+00 1.4286465285406408e+01 2.1156509035776030e+00
57 -1.1209504380706916e+00 -1.2287994131726482e+01 9.6383026626848203e+00
97 -1.1605035451861902e+01 -1.1804961207185997e+01 -5.8998940047434205e+00
99 7.9729530741338828e-01 8.1152910103327436e+00 4.0747919820119742e+00
68 -8.2395024496265645e-01 1.2781203884258428e+01 -3.4065966242086292e+00
101 -4.2726847794349858e+00 -1.0927060050738630e+01 7.2121422921400384e+00
80 -2.2039411345325908e+00 -3.2062404773988793e+00 -1.7122804184123988e+00
70 4.3632544913279965e+00 1.3727523469442557e+01 5.6512385855095983e+00
167 2.5308847607270115e+00 2.1525266914791108e+00 -2.9396646440655427e+00
65 5.3728451995341953e+00 -2.6584548520804785e+00 -1.1737010350380203e+01
105 -5.3769263768007249e+00 6.2665501696763126e+00 -6.5493472025914903e+00
190 -6.5417339102332184e+00 -1.8928540669683480e+00 5.3461415895495419e+00
72 9.7859592207512003e-01 7.9156561110488797e+00 2.5238116581420993e+00
4 -4.8326931163926909e+00 7.1409985933125739e+00 1.1142636523409633e+01
79 -1.7486759894133503e+01 -4.1282985929881272e-01 -1.0246622045985685e+01
82 4.8768130858885606e+00 5.3582990970221156e-01 -3.4998951118156985e+00
83 5.6261478098407540e+00 -1.3625785421468912e+01 1.7449065296680946e+00
87 -4.6619798167911011e+00 4.7034605980200528e+00 -3.7192157939029022e+00
86 2.0840695723508831e+00 6.5591137755487923e+00 8.2535285139231718e+00
12 -4.3841738431316077e+00 5.4342988078162211e+00 -3.3491108443134117e+00
17 8.0551155920253805e+00 3.6068658434217404e+00 1.1960366105321645e+01
94 -5.0445448125429291e+00 -8.1482605655261331e+00 -1.2464374106404130e+00
90 -1.1313495453090288e+01 -4.0473118791367213e+00 -2.2526174776090553e+00
91 -8.8957320168712872e+00 -7.7517908588564639e+00 1.6968443475285831e+01