LAMMPS data file via write_data, version 15 Apr 2020, timestep = 100000

216 atoms
1 atom types

1.5468103807216055e-01 1.6137418961924816e+01 xlo xhi
1.5468103807216055e-01 1.6137418961924816e+01 ylo yhi
1.5468103807216055e-01 1.6137418961924816e+01 zlo zhi

Masses

1 28.0855

Atoms # full

178 0 1 0.0000000000000000e+00 2.1925366423232022e+00 7.5634052464757962e-01 2.7128639875400968e+00 0 1 0
180 0 1 0.0000000000000000e+00 1.9025794632854869e+00 2.6759655079647651e+00 9.7411097777566757e-01 -3 2 -6
87 0 1 0.0000000000000000e+00 4.0273038364351637e+00 1.6764626923034229e+00 3.9418353906309749e+00 -4 -2 3
197 0 1 0.0000000000000000e+00 4.9633445722362008e+00 3.8058440403547128e-01 1.0832796927814741e+00 2 -3 3
158 0 1 0.0000000000000000e+00 6.1082772436681454e+00 1.7721771391185084e+00 2.7281254330962601e+00 1 2 2
184 0 1 0.0000000000000000e+00 4.2730798353574739e+00 2.8689810785329812e+00 3.9663467977608885e-01 8 -1 3
183 0 1 0.0000000000000000e+00 6.5732541424651014e+00 3.8234848404002180e+00 8.1058211089380161e-01 -1 -6 -4
56 0 1 0.0000000000000000e+00 8.5458674786611120e+00 3.5031296581422482e+00 2.2981638517918062e+00 -6 2 0
185 0 1 0.0000000000000000e+00 9.3466000736793049e+00 3.3693028583038098e-01 1.0897778534599130e+00 0 0 1
117 0 1 0.0000000000000000e+00 1.0257591508757157e+01 1.1208680705687251e+00 3.6960329351991530e+00 5 1 4
208 0 1 0.0000000000000000e+00 1.0369968185567879e+01 2.5181133304569738e+00 7.3673400784199272e-01 -7 -9 -2
173 0 1 0.0000000000000000e+00 1.2350468745145882e+01 1.9352456615516906e+00 2.1291311581283008e+00 9 4 -2
198 0 1 0.0000000000000000e+00 1.6004772229995584e+01 1.8478525203882594e+00 3.3307023182502520e+00 -3 2 4
139 0 1 0.0000000000000000e+00 1.4468453827069174e+01 5.7154257628042981e-01 2.2668888820679758e+00 -1 -2 -4
121 0 1 0.0000000000000000e+00 1.5910241253363516e+01 4.1449295177603247e+00 2.5189711480712091e+00 4 -6 -3
78 0 1 0.0000000000000000e+00 8.9850750656168343e-01 6.5128586680023632e+00 5.0357734933729137e-01 5 1 -3
126 0 1 0.0000000000000000e+00 1.9645942619540007e+00 5.6466433492108159e+00 3.0918687475060906e+00 -3 0 -5
106 0 1 0.0000000000000000e+00 4.0664345303015397e+00 5.3799484694429687e+00 1.6146747597216620e+00 3 -1 -3
153 0 1 0.0000000000000000e+00 5.9493281737644743e+00 6.3565557354205762e+00 2.6394147711219298e+00 5 2 3
128 0 1 0.0000000000000000e+00 9.5091174463963331e+00 7.1248493075695167e+00 8.9910817842205770e-01 -1 -2 -2
147 0 1 0.0000000000000000e+00 9.1298687078529035e+00 5.8397419603503309e+00 2.8371071529345810e+00 0 -1 2
31 0 1 0.0000000000000000e+00 7.1970344252514682e+00 6.0972678093618464e+00 3.4058254986705466e-01 4 -1 6
30 0 1 0.0000000000000000e+00 1.2737695048418400e+01 6.2235920449510553e+00 1.0455295351212190e+00 -3 -3 6
26 0 1 0.0000000000000000e+00 1.1173285306814421e+01 4.5383813235790678e+00 3.5825457002820777e+00 -5 4 -2
108 0 1 0.0000000000000000e+00 1.3136442297042114e+01 4.1685295383960801e+00 2.3629196026391193e+00 -6 -5 -3
66 0 1 0.0000000000000000e+00 1.9620726035768585e+00 2.4488045702066876e+00 6.3149229273118896e+00 0 -2 -1
40 0 1 0.0000000000000000e+00 4.1837577744435652e+00 3.7138809144391303e+00 5.8038953429063938e+00 -1 -3 0
67 0 1 0.0000000000000000e+00 4.8930104337376825e+00 3.6218167546677500e+00 8.0437420939505184e+00 2 -2 -2
112 0 1 0.0000000000000000e+00 6.9982564549513224e+00 2.2754345758399062e+00 6.8692471182238073e+00 1 -1 1
4 0 1 0.0000000000000000e+00 7.6193725566548185e+00 2.9862488727057102e+00 4.3711826912692109e+00 -4 1 -7
8 0 1 0.0000000000000000e+00 9.5577596548664943e+00 5.6366007842086652e-01 6.6132587665463252e+00 0 -3 -4
58 0 1 0.0000000000000000e+00 9.9266416423934540e+00 3.2306451627255264e+00 5.8171782785116113e+00 -3 5 4
101 0 1 0.0000000000000000e+00 1.2638072320077196e+01 3.3047329405004184e+00 7.3367667729378088e+00 -5 5 8
168 0 1 0.0000000000000000e+00 1.5282969402573769e+01 3.9401735601462264e+00 6.1731320734328676e+00 0 4 2
37 0 1 0.0000000000000000e+00 1.5309562636210861e+01 1.6159058589519408e+00 5.7083538815152277e+00 4 0 0
49 0 1 0.0000000000000000e+00 1.2941118381191105e+01 1.3005624809123875e+00 5.9383298951603889e+00 4 -1 1
130 0 1 0.0000000000000000e+00 1.6593140871308842e+00 4.9330518832023786e+00 5.6374777880999734e+00 0 6 -1
206 0 1 0.0000000000000000e+00 4.9562153417062227e-01 6.4247587971856115e+00 8.0556951951793216e+00 5 0 -4
44 0 1 0.0000000000000000e+00 2.8044506036105004e+00 7.5584706764992804e+00 4.5794123469699777e+00 -1 1 5
205 0 1 0.0000000000000000e+00 6.1501771051782841e+00 5.1241086550015726e+00 4.5659671929402412e+00 0 4 5
111 0 1 0.0000000000000000e+00 5.9896727905695766e+00 6.4740294707369541e+00 6.9515470155179271e+00 -2 1 -11
80 0 1 0.0000000000000000e+00 3.7148159946051722e+00 6.2691452785916786e+00 6.9037316334214252e+00 0 1 6
53 0 1 0.0000000000000000e+00 9.3739514559355754e+00 5.8272922336446076e+00 7.0054682652787008e+00 -1 -7 1
115 0 1 0.0000000000000000e+00 8.6121110155838476e+00 6.8229055454748098e+00 4.9145128214535472e+00 6 1 3
42 0 1 0.0000000000000000e+00 1.1317606729271121e+01 7.6243744376193892e+00 5.2578004406782792e+00 -1 -2 -4
98 0 1 0.0000000000000000e+00 1.2029252223917338e+01 5.2079652372477305e+00 5.6837021552946325e+00 0 2 -1
127 0 1 0.0000000000000000e+00 1.4397502135211941e+01 7.7251754237756014e+00 4.3440487009806166e+00 -3 3 4
20 0 1 0.0000000000000000e+00 1.4680778607097283e+01 7.1626918904029022e+00 6.7950727116271992e+00 -1 -1 7
176 0 1 0.0000000000000000e+00 1.4077051189454858e+01 5.0968708453884055e+00 4.4911834685034480e+00 3 -2 4
213 0 1 0.0000000000000000e+00 1.5826329211643559e+00 3.3575976713344859e+00 8.5537993141728652e+00 1 0 2
41 0 1 0.0000000000000000e+00 2.7105102437255018e+00 3.3812508354526853e+00 1.1705538461517937e+01 -2 3 -3
122 0 1 0.0000000000000000e+00 5.7928540361435754e-01 3.8829349546686536e+00 1.1208812846529680e+01 0 4 0
89 0 1 0.0000000000000000e+00 2.3190889560566763e+00 8.6077400805699600e-01 8.9638688393788524e+00 -4 -2 1
7 0 1 0.0000000000000000e+00 4.4979681246140801e+00 1.6792663243340560e+00 9.5494485265185034e+00 1 0 -1
196 0 1 0.0000000000000000e+00 5.8513181931439844e+00 2.0587376313838202e+00 1.1487138953817860e+01 2 4 -8
159 0 1 0.0000000000000000e+00 8.0307141827223880e+00 1.8418582738667706e+00 1.0676965333347502e+01 3 4 7
32 0 1 0.0000000000000000e+00 9.0672863332761580e+00 2.8072032883371181e+00 8.4783546044766691e+00 -1 4 1
70 0 1 0.0000000000000000e+00 1.1647860371258282e+01 3.7479925855919078e+00 1.1373147187015261e+01 -3 -3 1
94 0 1 0.0000000000000000e+00 1.1279185864069463e+01 1.4890845257902812e+00 8.5013134234224044e+00 0 3 -2
152 0 1 0.0000000000000000e+00 1.2306522512849513e+01 1.6034751002759418e+00 1.0835371353514001e+01 -5 4 -8
12 0 1 0.0000000000000000e+00 1.4676366069342029e+01 1.2888723815382537e+00 8.8544139309831689e+00 -4 0 -2
68 0 1 0.0000000000000000e+00 1.4558438800991318e+01 7.0296761162439458e-01 1.1988818969868287e+01 -4 1 -3
102 0 1 0.0000000000000000e+00 1.5311161245950025e+01 3.5894369601787721e+00 8.5480433771471631e+00 -3 2 -2
60 0 1 0.0000000000000000e+00 3.1444505883399319e+00 4.9727245357797960e+00 8.8147610936565304e+00 -1 3 -3
157 0 1 0.0000000000000000e+00 2.7028331820925028e-01 7.6106626758915965e+00 1.0121143933461129e+01 4 7 -5
174 0 1 0.0000000000000000e+00 1.1616070521992263e+00 6.2581120733129296e+00 1.1949643145528954e+01 2 1 -1
90 0 1 0.0000000000000000e+00 5.1233486187967072e+00 4.8605417738017120e+00 1.1607709499905598e+01 4 -2 0
50 0 1 0.0000000000000000e+00 3.6931111385810609e+00 6.6279331882560442e+00 1.0758987965119040e+01 1 -1 -4
77 0 1 0.0000000000000000e+00 8.9859474506034189e+00 5.9659592160982928e+00 1.1436860556227584e+01 -6 1 0
135 0 1 0.0000000000000000e+00 7.0227896554661768e+00 6.2275214312846741e+00 1.0303264594053458e+01 5 -2 -1
186 0 1 0.0000000000000000e+00 7.1765876673636031e+00 4.7683071263109431e+00 8.3390651361402046e+00 -2 3 -4
17 0 1 0.0000000000000000e+00 1.0219625065060743e+01 4.7802519492162103e+00 9.6666927326566015e+00 2 -7 -1
39 0 1 0.0000000000000000e+00 1.1090054002172348e+01 7.7085446311516348e+00 1.0709291798063893e+01 -1 5 0
23 0 1 0.0000000000000000e+00 9.8219768356297994e+00 7.6076924148225409e+00 8.4430103224291759e+00 -4 1 0
124 0 1 0.0000000000000000e+00 1.2251175181846635e+01 5.9694332420380460e+00 8.3150312372080393e+00 -2 2 4
74 0 1 0.0000000000000000e+00 1.3899804689497840e+01 4.4087685008796837e+00 1.1765531413433379e+01 -4 -5 1
133 0 1 0.0000000000000000e+00 1.4044865714529424e+01 5.6339854681388566e+00 9.8680159709144029e+00 4 -1 0
21 0 1 0.0000000000000000e+00 1.3591068513680733e+01 7.9095044756917501e+00 1.0790033848112065e+01 -6 -2 -5
6 0 1 0.0000000000000000e+00 2.8950755962128221e+00 1.7707554224675883e+00 1.3156635837621566e+01 -1 0 -6
142 0 1 0.0000000000000000e+00 4.7259629111747975e-01 3.3067419970277898e+00 1.4762565707234286e+01 -1 2 3
9 0 1 0.0000000000000000e+00 1.2409471780579426e+00 1.0174658034529682e+00 1.4758304850723013e+01 8 2 -4
156 0 1 0.0000000000000000e+00 5.6250782056672479e+00 2.3057085358440896e+00 1.4156216784111558e+01 2 -8 6
81 0 1 0.0000000000000000e+00 9.0032038762515327e+00 6.8658171196838003e-01 1.2387944339902752e+01 -3 1 1
123 0 1 0.0000000000000000e+00 9.5836926072411313e+00 3.2891846352848844e+00 1.2667412116638134e+01 1 3 -3
132 0 1 0.0000000000000000e+00 8.1372352248714304e+00 2.7337697499513123e+00 1.5316978533127768e+01 4 0 3
138 0 1 0.0000000000000000e+00 8.5634277820031670e+00 3.0768720968068847e-01 1.4602547229568446e+01 -4 -3 -3
24 0 1 0.0000000000000000e+00 1.1176821723231338e+01 2.3588580045740946e+00 1.4326900568573876e+01 -4 -3 1
99 0 1 0.0000000000000000e+00 1.3449805823529513e+01 2.6666612719322380e+00 1.5762209922306157e+01 0 -7 2
38 0 1 0.0000000000000000e+00 1.4919934962082733e+01 5.4599635119342294e-01 1.5579415620434922e+01 4 0 0
63 0 1 0.0000000000000000e+00 1.4458657323414476e+01 2.4363603669324601e+00 1.3198598189248546e+01 0 2 1
179 0 1 0.0000000000000000e+00 1.6018386038039305e+00 5.2678278154926819e+00 1.4317196028710038e+01 4 1 -3
211 0 1 0.0000000000000000e+00 3.1688746307865623e+00 7.9072437954591273e+00 1.3380551985949962e+01 -4 -2 -3
129 0 1 0.0000000000000000e+00 4.5141775709023344e+00 7.1004273626314980e+00 1.5476065815589577e+01 1 -4 -1
62 0 1 0.0000000000000000e+00 4.0227912625371509e+00 4.6296002149952304e+00 1.4338935892168369e+01 3 -3 3
203 0 1 0.0000000000000000e+00 6.0071575284123417e+00 6.2771069890676809e+00 1.3599267910991317e+01 3 7 9
84 0 1 0.0000000000000000e+00 8.3693629614107472e+00 5.2726795156095729e+00 1.4192982037027608e+01 -3 -6 -1
214 0 1 0.0000000000000000e+00 1.0458460541853084e+01 5.2321677837519394e+00 1.5978840792413294e+01 2 -2 -5
172 0 1 0.0000000000000000e+00 1.2522712805758838e+01 7.8578104385629652e+00 1.4620253174255227e+01 1 -4 -3
193 0 1 0.0000000000000000e+00 1.0496458496087554e+01 6.8309326731479416e+00 1.3659567217522381e+01 1 3 -6
166 0 1 0.0000000000000000e+00 1.2415900400489750e+01 4.8948225985690037e+00 1.4116194154271525e+01 1 1 -5
177 0 1 0.0000000000000000e+00 1.5881100571609752e+01 7.9867951063419680e+00 1.3754263951046184e+01 1 -2 3
13 0 1 0.0000000000000000e+00 1.4623087970451223e+01 5.7402180379745626e+00 1.3804875361618475e+01 -9 0 -4
15 0 1 0.0000000000000000e+00 1.5012533481699162e+01 8.0855182844569615e+00 1.6002657688014803e+01 -1 4 0
1 0 1 0.0000000000000000e+00 1.5052073634794516e+01 4.8332463510458119e+00 1.6080386192627010e+01 -2 0 1
187 0 1 0.0000000000000000e+00 8.3777751562080749e-01 1.0771842774798236e+01 2.8784752428122657e+00 -4 4 -6
167 0 1 0.0000000000000000e+00 4.5666082157629961e-01 8.2976851266712277e+00 2.9226769778207280e+00 3 -2 -1
18 0 1 0.0000000000000000e+00 3.0091685720193708e+00 1.0764442837133855e+01 1.4963465134519616e+00 3 -3 1
113 0 1 0.0000000000000000e+00 3.2904770149300573e+00 8.2205870539357040e+00 1.6354408203339290e+00 1 -3 -1
204 0 1 0.0000000000000000e+00 5.1790678027833588e+00 1.0716505853861220e+01 2.5831556075841808e+00 -6 -5 -9
93 0 1 0.0000000000000000e+00 5.0698574867244490e+00 8.7601561384674920e+00 3.8877738940775468e+00 2 -5 5
210 0 1 0.0000000000000000e+00 7.5522415762240147e+00 8.6313447247477875e+00 2.0550791537773510e+00 3 2 3
46 0 1 0.0000000000000000e+00 7.6964496215687763e+00 1.0836531530856425e+01 9.8599140371115612e-01 -2 2 9
154 0 1 0.0000000000000000e+00 9.8787210122996605e+00 9.0940014361036550e+00 3.1729216327961400e+00 2 -1 -5
57 0 1 0.0000000000000000e+00 1.2432067988102480e+01 1.1386875862713978e+01 3.0002680578855858e+00 -3 -5 2
199 0 1 0.0000000000000000e+00 1.1461286867725907e+01 8.6216396302503320e+00 5.0022143230578786e-01 2 1 2
182 0 1 0.0000000000000000e+00 1.0093890632644726e+01 1.1193226500268155e+01 1.9941681368823072e+00 -2 6 2
97 0 1 0.0000000000000000e+00 1.2370307449041704e+01 8.2462130902338977e+00 2.8595856597121552e+00 -5 -6 0
137 0 1 0.0000000000000000e+00 1.4135462850985240e+01 9.8011259749395840e+00 2.0270382343393920e+00 -4 2 -1
191 0 1 0.0000000000000000e+00 1.4888193867421778e+01 1.2001572503782468e+01 4.1303202697635877e+00 1 3 2
55 0 1 0.0000000000000000e+00 2.1503536436584345e+00 1.3494339750619472e+01 9.6760593136040673e-01 4 0 1
119 0 1 0.0000000000000000e+00 1.2685817032466136e+00 1.4592522489840061e+01 3.2324030892749427e+00 0 0 2
65 0 1 0.0000000000000000e+00 2.7492578446299518e+00 1.5929912193139995e+01 5.0424921974529502e-01 7 6 2
140 0 1 0.0000000000000000e+00 4.7627804408233283e+00 1.2843946893876922e+01 6.1912436072680432e-01 -1 3 5
27 0 1 0.0000000000000000e+00 3.5757770733396139e+00 1.4244854518770618e+01 3.9196473355262693e+00 1 -2 0
148 0 1 0.0000000000000000e+00 5.6497479720182833e+00 1.4392447670575242e+01 2.4646996397903544e+00 -5 -1 3
54 0 1 0.0000000000000000e+00 7.7266850770843849e+00 1.5857045511828391e+01 2.8813619923638707e+00 4 -1 1
88 0 1 0.0000000000000000e+00 7.2326887559147206e+00 1.2810983261393915e+01 2.7523350588201514e+00 -2 -4 -4
144 0 1 0.0000000000000000e+00 1.2628106014022279e+01 1.3993240607166067e+01 3.0387386991557328e+00 1 -4 1
104 0 1 0.0000000000000000e+00 9.7994896490420871e+00 1.3532597047327171e+01 2.6923047061935006e+00 -2 -1 1
161 0 1 0.0000000000000000e+00 1.2473478940731937e+01 1.2972325844987546e+01 5.2759718111911735e-01 2 1 3
164 0 1 0.0000000000000000e+00 1.0543319127658860e+01 1.4423844328361605e+01 3.2419184572591964e-01 -4 0 3
120 0 1 0.0000000000000000e+00 1.4861690096268525e+01 1.4149616414026170e+01 2.3530940718504318e+00 -8 -6 6
75 0 1 0.0000000000000000e+00 9.2267610125153976e-01 8.9297879250068828e+00 5.8109013417072788e+00 5 3 6
170 0 1 0.0000000000000000e+00 1.5307888718516425e+00 1.1157950263842705e+01 5.1868178133057716e+00 3 -1 -1
175 0 1 0.0000000000000000e+00 2.2858427480351069e+00 8.4072061211611775e+00 7.7215020938647703e+00 -2 -3 -11
151 0 1 0.0000000000000000e+00 6.1859411248601015e+00 1.1375306505521166e+01 5.0460075360836196e+00 -8 1 3
136 0 1 0.0000000000000000e+00 4.0088476827978976e+00 9.9055708561577287e+00 6.0488680412409375e+00 0 -2 -1
107 0 1 0.0000000000000000e+00 5.7468497811862358e+00 8.8159382017003427e+00 7.7434030555209841e+00 -2 8 1
45 0 1 0.0000000000000000e+00 9.4293014477018158e+00 1.0533439973165034e+01 7.9965905519323277e+00 2 -8 2
91 0 1 0.0000000000000000e+00 9.1124291366116630e+00 1.0011840684406696e+01 5.4675803269884744e+00 -4 -4 1
114 0 1 0.0000000000000000e+00 7.1274054937956262e+00 8.6343033208501119e+00 5.5634230667034057e+00 -2 -1 0
33 0 1 0.0000000000000000e+00 1.1493492334989680e+01 9.3475964862837397e+00 7.0292975200344747e+00 0 -2 1
64 0 1 0.0000000000000000e+00 1.2299686427749766e+01 1.0925207428743830e+01 5.3661022764888644e+00 3 2 5
143 0 1 0.0000000000000000e+00 1.4536226928652979e+01 1.0128106778886815e+01 5.9548782593908065e+00 -1 1 6
212 0 1 0.0000000000000000e+00 3.5947806093270923e-01 1.2232677440881870e+01 7.0811569217875263e+00 6 3 -3
194 0 1 0.0000000000000000e+00 2.7817037048327760e+00 1.5310089788873558e+01 7.3345225423431719e+00 1 2 2
150 0 1 0.0000000000000000e+00 7.6078006212545413e-01 1.5516448928046678e+01 5.4448477795438857e+00 1 -2 -1
149 0 1 0.0000000000000000e+00 4.0377160509773526e+00 1.3166557561366549e+01 7.0877147242343321e+00 1 1 -5
181 0 1 0.0000000000000000e+00 6.3939007971250934e+00 1.3122627274050975e+01 7.2011417383051493e+00 -5 8 -2
145 0 1 0.0000000000000000e+00 3.8439178485995651e+00 1.2290466172315112e+01 5.0357991783272054e+00 5 7 7
48 0 1 0.0000000000000000e+00 6.1755796076311480e+00 1.5713063902463071e+01 6.5197958102642026e+00 1 -1 2
192 0 1 0.0000000000000000e+00 3.9760296012781100e+00 1.6039553589504639e+01 5.5828644540138939e+00 5 0 1
82 0 1 0.0000000000000000e+00 8.1136324891394178e+00 1.5136518094591088e+01 5.1118344630989458e+00 0 0 1
52 0 1 0.0000000000000000e+00 8.7076192029321415e+00 1.3395984148792033e+01 7.8453379652718782e+00 3 -8 0
5 0 1 0.0000000000000000e+00 8.6683947483263601e+00 1.2515072144897598e+01 5.0322455919062410e+00 0 -1 -2
190 0 1 0.0000000000000000e+00 1.0922530342908294e+01 1.3015601308785680e+01 5.6093151826587837e+00 -1 -7 5
11 0 1 0.0000000000000000e+00 1.1416435696067522e+01 1.5408662259306878e+01 5.2271869708430545e+00 -1 0 2
59 0 1 0.0000000000000000e+00 1.1964228486575985e+01 1.2663553274168574e+01 7.8357989326728141e+00 5 -2 1
51 0 1 0.0000000000000000e+00 1.3262810032299395e+01 1.5447332365835853e+01 7.5769160085328560e+00 -5 -1 2
125 0 1 0.0000000000000000e+00 1.6056308493596116e+01 1.4524765331711588e+01 7.8369883035118155e+00 -9 -7 2
29 0 1 0.0000000000000000e+00 1.4318009564123793e+01 1.4332920727810444e+01 5.4279500296764418e+00 -3 -2 -1
28 0 1 0.0000000000000000e+00 2.2159897636455921e+00 9.2314962970706027e+00 9.9683252875489483e+00 -4 1 -4
209 0 1 0.0000000000000000e+00 8.5792205994865989e-01 9.5900224626492054e+00 1.2038888179895158e+01 0 0 4
86 0 1 0.0000000000000000e+00 1.5085022984532601e+00 1.1759077920174745e+01 9.1807317743778274e+00 -5 2 1
169 0 1 0.0000000000000000e+00 3.9705848379099855e+00 1.1040489647949762e+01 1.1588909892593701e+01 -2 5 0
47 0 1 0.0000000000000000e+00 4.8599332257100967e+00 8.5527294451347675e+00 1.0279340824374898e+01 3 2 -6
22 0 1 0.0000000000000000e+00 4.2715682426388533e+00 1.1541701656567824e+01 9.2469365456125008e+00 2 1 6
141 0 1 0.0000000000000000e+00 6.7710189769000779e+00 1.0899052438061140e+01 1.1026475826738833e+01 3 -1 4
85 0 1 0.0000000000000000e+00 8.5948599514338255e+00 8.5995012881119610e+00 1.2065248136680109e+01 5 0 3
96 0 1 0.0000000000000000e+00 7.8573593136176827e+00 8.5577840421183833e+00 9.4466425071188205e+00 2 3 0
202 0 1 0.0000000000000000e+00 6.5943845069201545e+00 1.0953493914310362e+01 8.3875874321222348e+00 10 -3 0
163 0 1 0.0000000000000000e+00 1.0926057353840861e+01 1.1474736295583623e+01 9.6977167312501820e+00 -3 5 0
35 0 1 0.0000000000000000e+00 1.3279427751218307e+01 8.5088394630932243e+00 8.2325093309674848e+00 -1 3 -5
76 0 1 0.0000000000000000e+00 1.3063932718517023e+01 1.1250586372556294e+01 1.0903185255654975e+01 2 -1 -2
109 0 1 0.0000000000000000e+00 1.4228500935610507e+01 1.0993793061503245e+01 8.3294622721363840e+00 -1 0 2
19 0 1 0.0000000000000000e+00 1.5476896126528866e+01 1.0871115265174282e+01 1.0590837201956756e+01 -3 -4 -10
160 0 1 0.0000000000000000e+00 8.3943421775980465e-01 1.3140034484209314e+01 1.1497943988849162e+01 2 1 4
216 0 1 0.0000000000000000e+00 2.6840651054047355e+00 1.4087590956327389e+01 9.9249907537360986e+00 -1 0 -1
105 0 1 0.0000000000000000e+00 5.1069454605783604e-01 1.5850189871568647e+01 1.0383838401155314e+01 -1 -3 -3
79 0 1 0.0000000000000000e+00 3.0565454126728704e+00 1.5896568831623492e+01 1.1926328222027946e+01 5 6 1
201 0 1 0.0000000000000000e+00 6.2156986998028838e+00 1.5800498572878414e+01 8.7720195732963102e+00 -6 6 -1
110 0 1 0.0000000000000000e+00 5.3828902987279319e+00 1.3873076282642000e+01 1.0084235429883904e+01 -3 0 -2
69 0 1 0.0000000000000000e+00 8.3869640405522965e+00 1.2805807066811775e+01 1.0223796714413897e+01 -2 0 -4
118 0 1 0.0000000000000000e+00 7.5259791776734186e+00 1.4874182827723464e+01 1.1573948487758214e+01 -7 7 -5
134 0 1 0.0000000000000000e+00 8.6132796770314641e+00 1.6041507953338375e+01 8.9939514909166647e+00 3 -5 -9
14 0 1 0.0000000000000000e+00 1.0476874862851151e+01 1.3882890111112998e+01 1.1095839368482631e+01 -2 -6 -1
43 0 1 0.0000000000000000e+00 1.0994476262575075e+01 1.4989550915354110e+01 9.2074757056451517e+00 -6 1 0
171 0 1 0.0000000000000000e+00 1.1084114982608591e+01 1.5994789048262408e+01 1.2101575466392214e+01 -1 6 3
195 0 1 0.0000000000000000e+00 1.8122698064369926e+00 1.1492810394135033e+01 1.3314505203844909e+01 3 5 3
155 0 1 0.0000000000000000e+00 2.0075573156060793e+00 8.9091917202692770e+00 1.5481940644817351e+01 -4 0 2
36 0 1 0.0000000000000000e+00 1.7804369194552372e-01 1.0374488596155290e+01 1.5961242045523411e+01 4 -1 0
92 0 1 0.0000000000000000e+00 5.4235753034136769e+00 1.0281098383976177e+01 1.3300325542320847e+01 0 -3 3
25 0 1 0.0000000000000000e+00 3.5680165885388577e+00 1.0690481851466052e+01 1.4807175841029148e+01 0 -3 -3
73 0 1 0.0000000000000000e+00 6.1015125242586468e+00 8.2180716980096538e+00 1.2263595267621611e+01 8 -4 -2
146 0 1 0.0000000000000000e+00 9.4203825931405802e+00 1.1118609724737864e+01 1.2282417248062867e+01 5 -2 3
207 0 1 0.0000000000000000e+00 6.6699493633197289e+00 8.5773068484042625e+00 1.5412007027508414e+01 0 3 7
71 0 1 0.0000000000000000e+00 7.4641516731750466e+00 1.1461435125639634e+01 1.4236125810552748e+01 1 2 0
189 0 1 0.0000000000000000e+00 8.8758029333042163e+00 9.1118141709192475e+00 1.4640268286962854e+01 -4 1 -3
2 0 1 0.0000000000000000e+00 1.1348727965349354e+01 9.7508257677285108e+00 1.2222859615738553e+01 -1 1 1
103 0 1 0.0000000000000000e+00 1.0741773610299408e+01 1.0771088883635775e+01 1.5415983029343048e+01 7 1 2
16 0 1 0.0000000000000000e+00 1.3179952683642126e+01 1.0744052685116666e+01 1.5520082923204791e+01 3 -1 0
95 0 1 0.0000000000000000e+00 1.4680685400560613e+01 1.1755713290541227e+01 1.3306142488972272e+01 6 -4 4
10 0 1 0.0000000000000000e+00 1.4026468699342916e+01 9.2402543529747216e+00 1.3115178434765046e+01 2 0 3
61 0 1 0.0000000000000000e+00 3.6711974793102353e-01 1.5071410444666217e+01 1.3056105702406521e+01 -1 1 -2
165 0 1 0.0000000000000000e+00 2.7419396525763329e-01 1.2733837675240441e+01 1.5317419386015391e+01 2 1 1
34 0 1 0.0000000000000000e+00 2.4978940289231613e+00 1.3966842449284082e+01 1.4242752409568366e+01 -1 2 -6
162 0 1 0.0000000000000000e+00 6.1092861014866440e+00 1.5867966277293286e+01 1.4938884258597925e+01 8 0 -3
83 0 1 0.0000000000000000e+00 5.4691932671740240e+00 1.5819773404610908e+01 1.2215451727725736e+01 0 5 -1
200 0 1 0.0000000000000000e+00 4.1215376961871089e+00 1.3182879414782329e+01 1.2406114154302596e+01 3 -4 -2
72 0 1 0.0000000000000000e+00 5.7797520410680265e+00 1.3400412937872114e+01 1.4287194453389997e+01 0 -3 -1
215 0 1 0.0000000000000000e+00 8.3724241219646327e+00 1.3822135505014810e+01 1.3747407282069451e+01 -1 0 -7
116 0 1 0.0000000000000000e+00 1.2776722168140180e+01 1.3315113022150008e+01 1.2153458947123806e+01 0 -1 2
3 0 1 0.0000000000000000e+00 1.1721392686602492e+01 1.5827796033730944e+01 1.4475595971119475e+01 -11 5 -3
131 0 1 0.0000000000000000e+00 1.0929462053267915e+01 1.3283584146365124e+01 1.3923597688456244e+01 -1 1 -2
188 0 1 0.0000000000000000e+00 1.4219480603833533e+01 1.4045114171656360e+01 1.5772044811303266e+01 -1 0 2
100 0 1 0.0000000000000000e+00 1.3741564091439727e+01 1.5014238868202421e+01 1.3392677547686921e+01 5 -2 3

Velocities

178 4.5304648193819359e+00 8.2519857228384872e+00 9.3729895005496946e+00
180 -1.0090541661219143e+01 1.1812704519802635e+01 1.7960493207412649e+00
87 1.3543448670727536e+00 -8.1923291153861655e+00 6.0926268994668158e+00
197 5.4339325276232815e+00 1.4825821616555726e+00 6.0035280206906627e+00
158 -8.4981843796000796e+00 -3.4213771580141210e+00 1.7219567867879089e+00
184 -6.9998810677157380e-02 7.5624197562184845e+00 -4.6241090213930951e+00
183 9.1064344050106190e+00 2.0284505270379992e+01 8.8840157497499419e+00
56 -2.2618952835720436e+00 -1.1418038184766282e+01 3.7134510678996073e+00
185 1.1121019863840520e+01 -2.2578674790330835e+00 -6.2810341407942989e+00
117 -1.0169198897011706e+01 6.3869013410546527e-01 1.0131908154680849e+01
208 -5.7571132948216741e-01 -7.2347096778435844e+00 -5.1601373914475941e+00
173 -1.0257218595333104e+01 -6.8666871555272468e+00 -1.0989105391389740e+00
198 2.2046714534800738e+00 3.3390503509273732e+00 -4.7287437116927062e+00
139 -7.4711542912478004e+00 2.1506769823001393e+00 -2.3311949321738590e+00
121 -8.6583350075721608e+00 7.4088917687886120e+00 -3.1829797122733501e+00
78 -3.5999875398365644e+00 -1.1802560716030058e+01 -5.1134628514343170e+00
126 -9.5123690281827900e-01 2.9501979594127764e-01 5.5954447448841451e+00
106 -4.6357459463587185e+00 5.5786431039184601e+00 9.5157544233777607e+00
153 6.5531522290564348e-01 -5.9482384318483792e+00 5.7169997265123262e+00
128 2.4977975424899039e+00 -1.4654676387544725e+01 8.2307040416781625e+00
147 5.2553691046440687e-01 3.3065359364965285e+00 9.4281945409423984e-01
31 4.1316386530846017e-01 -1.6453980942132780e+01 2.7129371127849864e+00
30 7.8219034300072430e+00 8.3463488275922106e+00 -1.4086265013138606e+01
26 -9.9544721728584895e-01 9.3938288860341979e-01 -2.2334573617073477e+00
108 -4.1971196368063817e+00 -1.1698425545633670e+01 3.9965896213923155e+00
66 1.3838222761345447e+00 2.2245827746047269e+00 4.9918906577822225e-01
40 -2.5974797285125906e-01 1.6363539944186003e+00 1.4682988123029210e+01
67 -1.1388340679422859e+01 -2.7692997981812852e+00 9.2048580747350925e+00
112 -9.4340413585651604e+00 8.6827921169653912e+00 -4.8679381230947092e+00
4 6.6987582236339724e+00 -2.4194614438680633e+00 6.5611985553747703e+00
8 -1.3870950990912332e+01 -6.2613119997132589e+00 -8.8777530244438942e+00
58 2.5066131453303777e+00 -4.8245780373961473e+00 -3.5098616709863237e+00
101 -4.5633717173787636e+00 1.3369793719321517e+00 5.1438922013700674e+00
168 -2.2910094604850917e+00 -5.8426523844562561e-01 7.6732165162406920e+00
37 1.0511918770771029e+00 -7.8045618823526892e+00 -9.3926118315706617e+00
49 5.3671216537201856e+00 1.4683299593216097e+01 -2.7201722033217641e+00
130 -4.1577016194635155e+00 -1.3048359264706979e+00 1.0779221781579718e+01
206 -4.5960409484034157e+00 1.1112631124141912e+00 5.4188899050286157e+00
44 1.7150098342896087e+00 4.6404565925474399e+00 5.9519501215399666e+00
205 9.7213564016542673e+00 -1.6203429641995875e+01 1.2267170709011019e+01
111 3.9966334481379251e+00 -2.6686362117348157e+00 3.4932834355977667e+00
80 4.1262320283161680e+00 -1.4965219610933131e+01 -5.8651238720465919e+00
53 -1.7397013691871241e+01 3.0080494635326160e+00 -2.8713122458072267e+00
115 -1.2499980034791749e+01 -1.2807493494780028e-01 -9.7243732179168529e-01
42 -3.5520035978659674e+00 5.5210789405139433e+00 -1.1573279888779254e+01
98 5.2837981739108422e+00 5.9869392575840754e+00 -1.1731115327478122e+01
127 4.7784745532396589e-01 1.3322585247636434e+01 -9.0284782644454857e+00
20 6.5638890348994909e+00 1.9814403873399329e+00 -4.3073811947668944e-01
176 8.5311927032171457e+00 -2.7909651007291760e+00 -1.2334673025190627e+01
213 8.9022436050521598e+00 4.3811987818764173e+00 -1.0773932209038433e+01
41 7.4164727078146022e+00 -4.4767255147262501e+00 5.0907776574633274e+00
122 -5.0796834423155213e+00 1.7476568218945552e+01 8.1493538586173173e+00
89 7.9638381421210802e+00 3.3226073995559608e+00 -8.6511310886281514e+00
7 3.7250519526146388e+00 2.8185337381317113e+00 5.8890107859446650e-01
196 -7.4075253956181060e+00 -9.1986465973308178e+00 -1.3793504187850627e+00
159 -9.1603652634262223e-01 1.6032596547709506e+00 -4.0429944315574620e+00
32 1.2134841292531071e+01 -1.5224799135764373e+00 -1.1894046321482374e+01
70 -4.3078550252854493e+00 2.3808861385116185e+00 -1.0471535580258202e+01
94 4.9961738345294791e+00 9.7527187236339685e+00 -4.2394024063872173e+00
152 4.0138411513493883e+00 4.9579456206597161e+00 3.0222343553672415e+00
12 4.0242656770206295e+00 9.0533554113579240e-01 1.2305723451139782e+01
68 1.1390728951539229e+01 -1.0077261400138799e+01 -1.5695530446596633e+00
102 -5.6720309776618087e+00 9.1934519983698593e+00 -1.9322505946669581e+00
60 -3.6554457144817856e+00 -1.4518909426615070e+00 1.0678523842429442e+01
157 -1.7218568973386457e+00 -1.5775283860563534e+00 -1.1149513300508433e+01
174 -1.7787799082329041e+00 -1.6396626894869026e+01 5.7724169828847982e-01
90 1.4717872782379571e+01 -1.1504762910602606e+01 -1.6842520033115857e+01
50 3.5038573036472993e+00 -1.3954433421782671e+01 9.1105866774641875e+00
77 -3.5680404467947496e-01 -8.5614353939941203e+00 -2.0243144450966750e+00
135 6.4738126415686459e-01 5.6411954765321823e+00 -4.9137004937574140e+00
186 -1.5632446300532410e-01 -1.6817175656036788e+01 6.1171210862929701e+00
17 -4.0978808868008737e-01 4.0084687159823389e+00 -2.6088562192408724e+00
39 3.0741269997562486e+00 8.4103621323582300e-01 -3.0060131031027808e+00
23 6.1892218262260821e+00 -8.9869193591486916e+00 7.6226147254028360e+00
124 -1.8998476559437396e+00 -5.4962193750164057e-01 -4.4890053042444498e+00
74 1.9570985599472370e+00 -1.2851091287515160e+01 -2.8088716952744202e+00
133 -3.1757132837470547e+00 -3.6273368593937692e+00 3.0816575672709750e+00
21 1.2997423920744115e+01 -2.8178503691893124e+00 -8.8651657901532468e-02
6 -3.0083824642768628e+00 9.2162463222998259e+00 -3.8372925189894849e+00
142 -1.9491949652753333e+00 4.2994731750662423e+00 -5.4097076665289290e+00
9 5.1885444669375991e+00 -1.9588738612687244e+00 6.7952700678046565e+00
156 5.1717208692385777e+00 2.3671077829963161e+00 -3.6954325288666774e+00
81 -7.5013441332592876e+00 -8.2901234682486731e+00 -6.8643009481139998e+00
123 1.5032411452587064e+00 -4.5702460914490406e-01 2.2125670804401690e-01
132 -4.5998717002367973e-01 9.1517475573131115e+00 -6.5477578200785604e+00
138 6.4305021792253714e-01 -1.2957937057497700e+01 -3.4084376128945877e+00
24 4.2143878836133890e+00 -6.8278313865077660e+00 -8.8945176386644409e+00
99 5.9253454821826124e-01 5.4814463048383564e+00 6.7525441884156845e-01
38 -1.1922680718205589e+00 -1.3813904331616949e+00 3.7071726694917970e+00